0.000000000000000000e+00 -5.643686028831407242e-02
7.868847933080908323e-04 8.605920108700737536e-02
1.573769586616181665e-03 8.605920108700737536e-02
2.360654379924272388e-03 8.605920108700737536e-02
3.147539173232363329e-03 8.605920108700737536e-02
3.934423966540453836e-03 8.605920108700737536e-02
4.721308759848544777e-03 8.605920108700737536e-02
5.508193553156635718e-03 8.605920108700737536e-02
6.295078346464726658e-03 8.605920108700737536e-02
7.081963139772817599e-03 8.605920108700737536e-02
7.868847933080907672e-03 8.605920108700737536e-02
8.655732726388998613e-03 8.605920108700737536e-02
9.442617519697089554e-03 8.605920108700737536e-02
1.022950231300518049e-02 8.605920108700737536e-02
1.101638710631327144e-02 8.605920108700737536e-02
1.180327189962136238e-02 8.605920108700737536e-02
1.259015669292945332e-02 8.605920108700737536e-02
1.337704148623754426e-02 8.605920108700737536e-02
1.416392627954563520e-02 8.605920108700737536e-02
1.495081107285372614e-02 8.605920108700737536e-02
1.573769586616181534e-02 8.605920108700737536e-02
1.652458065946990629e-02 8.605920108700737536e-02
1.731146545277799723e-02 8.605920108700737536e-02
1.809835024608608817e-02 8.605920108700737536e-02
1.888523503939417911e-02 8.605920108700737536e-02
1.967211983270227005e-02 8.605920108700737536e-02
2.045900462601036099e-02 8.605920108700737536e-02
2.124588941931845193e-02 8.605920108700737536e-02
2.203277421262654287e-02 8.605920108700737536e-02
2.281965900593463381e-02 8.605920108700737536e-02
2.360654379924272475e-02 8.605920108700737536e-02
2.439342859255081569e-02 8.605920108700737536e-02
2.518031338585890663e-02 8.605920108700737536e-02
2.596719817916699757e-02 8.605920108700737536e-02
2.675408297247508851e-02 8.605920108700737536e-02
2.754096776578317946e-02 8.605920108700737536e-02
2.832785255909127040e-02 8.605920108700737536e-02
2.911473735239936134e-02 8.605920108700737536e-02
2.990162214570745228e-02 8.605920108700737536e-02
3.068850693901554322e-02 8.605920108700737536e-02
3.147539173232363069e-02 8.605920108700737536e-02
3.226227652563172510e-02 8.605920108700737536e-02
3.304916131893981257e-02 8.605920108700737536e-02
3.383604611224790698e-02 8.605920108700737536e-02
3.462293090555599445e-02 8.605920108700737536e-02
3.540981569886408886e-02 8.605920108700737536e-02
3.619670049217217633e-02 8.605920108700737536e-02
3.698358528548027074e-02 8.605920108700737536e-02
3.777047007878835821e-02 8.605920108700737536e-02
3.855735487209645262e-02 8.605920108700737536e-02
3.934423966540454010e-02 8.605920108700737536e-02
4.013112445871263451e-02 8.605920108700737536e-02
4.091800925202072198e-02 8.605920108700737536e-02
4.170489404532881639e-02 8.605920108700737536e-02
4.249177883863690386e-02 8.605920108700737536e-02
4.327866363194499827e-02 8.605920108700737536e-02
4.406554842525308574e-02 8.605920108700737536e-02
4.485243321856118015e-02 8.605920108700737536e-02
4.563931801186926762e-02 8.605920108700737536e-02
4.642620280517736203e-02 8.605920108700737536e-02
4.721308759848544950e-02 8.605920108700737536e-02
4.799997239179354391e-02 8.605920108700737536e-02
4.878685718510163138e-02 8.605920108700737536e-02
4.957374197840972579e-02 8.605920108700737536e-02
5.036062677171781327e-02 8.605920108700737536e-02
5.114751156502590074e-02 8.605920108700737536e-02
5.193439635833399515e-02 8.605920108700737536e-02
5.272128115164208262e-02 8.605920108700737536e-02
5.350816594495017703e-02 8.605920108700737536e-02
5.429505073825826450e-02 8.605920108700737536e-02
5.508193553156635891e-02 8.605920108700737536e-02
5.586882032487444638e-02 8.605920108700737536e-02
5.665570511818254079e-02 8.605920108700737536e-02
5.744258991149062826e-02 8.605920108700737536e-02
5.822947470479872267e-02 8.605920108700737536e-02
5.901635949810681014e-02 8.605920108700737536e-02
5.980324429141490455e-02 8.605920108700737536e-02
6.059012908472299203e-02 8.605920108700737536e-02
6.137701387803108644e-02 8.605920108700737536e-02
6.216389867133917391e-02 8.605920108700737536e-02
6.295078346464726138e-02 8.605920108700737536e-02
6.373766825795536273e-02 8.605920108700737536e-02
6.452455305126345020e-02 8.605920108700737536e-02
6.531143784457153767e-02 8.605920108700737536e-02
6.609832263787962514e-02 8.605920108700737536e-02
6.688520743118772649e-02 8.605920108700737536e-02
6.767209222449581396e-02 8.605920108700737536e-02
6.845897701780390143e-02 8.605920108700737536e-02
6.924586181111198890e-02 8.605920108700737536e-02
7.003274660442009025e-02 8.605920108700737536e-02
7.081963139772817772e-02 8.605920108700737536e-02
7.160651619103626520e-02 8.605920108700737536e-02
7.239340098434435267e-02 8.605920108700737536e-02
7.318028577765245402e-02 8.605920108700737536e-02
7.396717057096054149e-02 8.605920108700737536e-02
7.475405536426862896e-02 8.605920108700737536e-02
7.554094015757671643e-02 8.605920108700737536e-02
7.632782495088480390e-02 8.605920108700737536e-02
7.711470974419290525e-02 8.605920108700737536e-02
7.790159453750099272e-02 8.605920108700737536e-02
7.868847933080908019e-02 8.605920108700737536e-02
7.947536412411716766e-02 8.605920108700737536e-02
8.026224891742526901e-02 8.605920108700737536e-02
8.104913371073335648e-02 8.605920108700737536e-02
8.183601850404144396e-02 8.605920108700737536e-02
8.262290329734953143e-02 8.605920108700737536e-02
8.340978809065763278e-02 8.605920108700737536e-02
8.419667288396572025e-02 8.605920108700737536e-02
8.498355767727380772e-02 8.605920108700737536e-02
8.577044247058189519e-02 8.605920108700737536e-02
8.655732726388999654e-02 8.605920108700737536e-02
8.734421205719808401e-02 8.605920108700737536e-02
8.813109685050617148e-02 8.605920108700737536e-02
8.891798164381425895e-02 8.605920108700737536e-02
8.970486643712236030e-02 8.605920108700737536e-02
9.049175123043044777e-02 8.605920108700737536e-02
9.127863602373853524e-02 8.605920108700737536e-02
9.206552081704662271e-02 8.605920108700737536e-02
9.285240561035472406e-02 8.605920108700737536e-02
9.363929040366281153e-02 8.605920108700737536e-02
9.442617519697089901e-02 8.605920108700737536e-02
9.521305999027898648e-02 8.605920108700737536e-02
9.599994478358708783e-02 8.605920108700737536e-02
9.678682957689517530e-02 8.605920108700737536e-02
9.757371437020326277e-02 8.605920108700737536e-02
9.836059916351135024e-02 8.605920108700737536e-02
9.914748395681945159e-02 8.605920108700737536e-02
9.993436875012753906e-02 8.605920108700737536e-02
1.007212535434356265e-01 8.605920108700737536e-02
1.015081383367437140e-01 8.605920108700737536e-02
1.022950231300518015e-01 8.605920108700737536e-02
1.030819079233599028e-01 8.605920108700737536e-02
1.038687927166679903e-01 8.605920108700737536e-02
1.046556775099760778e-01 8.605920108700737536e-02
1.054425623032841652e-01 8.605920108700737536e-02
1.062294470965922666e-01 8.605920108700737536e-02
1.070163318899003541e-01 8.605920108700737536e-02
1.078032166832084415e-01 8.605920108700737536e-02
1.085901014765165290e-01 8.605920108700737536e-02
1.093769862698246303e-01 8.605920108700737536e-02
1.101638710631327178e-01 8.605920108700737536e-02
1.109507558564408053e-01 8.605920108700737536e-02
1.117376406497488928e-01 8.605920108700737536e-02
1.125245254430569941e-01 8.605920108700737536e-02
1.133114102363650816e-01 8.605920108700737536e-02
1.140982950296731691e-01 8.605920108700737536e-02
1.148851798229812565e-01 8.605920108700737536e-02
1.156720646162893579e-01 8.605920108700737536e-02
1.164589494095974453e-01 8.605920108700737536e-02
1.172458342029055328e-01 8.605920108700737536e-02
1.180327189962136203e-01 8.605920108700737536e-02
1.188196037895217216e-01 8.605920108700737536e-02
1.196064885828298091e-01 8.605920108700737536e-02
1.203933733761378966e-01 8.605920108700737536e-02
1.211802581694459841e-01 8.605920108700737536e-02
1.219671429627540854e-01 8.605920108700737536e-02
1.227540277560621729e-01 8.605920108700737536e-02
1.235409125493702603e-01 8.605920108700737536e-02
1.243277973426783478e-01 8.605920108700737536e-02
1.251146821359864492e-01 8.605920108700737536e-02
1.259015669292945228e-01 8.605920108700737536e-02
1.266884517226026241e-01 8.605920108700737536e-02
1.274753365159107255e-01 8.605920108700737536e-02
1.282622213092187990e-01 8.605920108700737536e-02
1.290491061025269004e-01 8.605920108700737536e-02
1.298359908958349740e-01 8.605920108700737536e-02
1.306228756891430753e-01 8.605920108700737536e-02
1.314097604824511767e-01 8.605920108700737536e-02
1.321966452757592503e-01 8.605920108700737536e-02
1.329835300690673516e-01 8.605920108700737536e-02
1.337704148623754530e-01 8.605920108700737536e-02
1.345572996556835266e-01 8.605920108700737536e-02
1.353441844489916279e-01 8.605920108700737536e-02
1.361310692422997015e-01 8.605920108700737536e-02
1.369179540356078029e-01 8.605920108700737536e-02
1.377048388289159042e-01 8.605920108700737536e-02
1.384917236222239778e-01 8.605920108700737536e-02
1.392786084155320792e-01 8.605920108700737536e-02
1.400654932088401805e-01 8.605920108700737536e-02
1.408523780021482541e-01 8.605920108700737536e-02
1.416392627954563554e-01 8.605920108700737536e-02
1.424261475887644290e-01 8.605920108700737536e-02
1.432130323820725304e-01 8.605920108700737536e-02
1.439999171753806317e-01 8.605920108700737536e-02
1.447868019686887053e-01 8.605920108700737536e-02
1.455736867619968067e-01 8.605920108700737536e-02
1.463605715553049080e-01 8.605920108700737536e-02
1.471474563486129816e-01 8.605920108700737536e-02
1.479343411419210830e-01 8.605920108700737536e-02
1.487212259352291566e-01 8.605920108700737536e-02
1.495081107285372579e-01 8.605920108700737536e-02
1.502949955218453593e-01 8.605920108700737536e-02
1.510818803151534329e-01 8.605920108700737536e-02
1.518687651084615342e-01 8.605920108700737536e-02
1.526556499017696078e-01 8.605920108700737536e-02
1.534425346950777092e-01 8.605920108700737536e-02
1.542294194883858105e-01 8.605920108700737536e-02
1.550163042816938841e-01 8.605920108700737536e-02
1.558031890750019854e-01 8.605920108700737536e-02
1.565900738683100868e-01 8.605920108700737536e-02
1.573769586616181604e-01 8.605920108700737536e-02
1.581638434549262617e-01 8.605920108700737536e-02
1.589507282482343353e-01 8.605920108700737536e-02
1.597376130415424367e-01 8.605920108700737536e-02
1.605244978348505380e-01 8.605920108700737536e-02
1.613113826281586116e-01 8.605920108700737536e-02
1.620982674214667130e-01 8.605920108700737536e-02
1.628851522147748143e-01 8.605920108700737536e-02
1.636720370080828879e-01 8.605920108700737536e-02
1.644589218013909893e-01 8.605920108700737536e-02
1.652458065946990629e-01 8.605920108700737536e-02
1.660326913880071642e-01 8.605920108700737536e-02
1.668195761813152656e-01 8.605920108700737536e-02
1.676064609746233391e-01 8.605920108700737536e-02
1.683933457679314405e-01 8.605920108700737536e-02
1.691802305612395418e-01 8.605920108700737536e-02
1.699671153545476154e-01 8.605920108700737536e-02
1.707540001478557168e-01 8.605920108700737536e-02
1.715408849411637904e-01 8.605920108700737536e-02
1.723277697344718917e-01 8.605920108700737536e-02
1.731146545277799931e-01 8.605920108700737536e-02
1.739015393210880667e-01 8.605920108700737536e-02
1.746884241143961680e-01 8.605920108700737536e-02
1.754753089077042694e-01 8.605920108700737536e-02
1.762621937010123430e-01 8.605920108700737536e-02
1.770490784943204443e-01 8.605920108700737536e-02
1.778359632876285179e-01 8.605920108700737536e-02
1.786228480809366193e-01 8.605920108700737536e-02
1.794097328742447206e-01 8.605920108700737536e-02
1.801966176675527942e-01 8.605920108700737536e-02
1.809835024608608955e-01 8.605920108700737536e-02
1.817703872541689691e-01 8.605920108700737536e-02
1.825572720474770705e-01 8.605920108700737536e-02
1.833441568407851718e-01 8.605920108700737536e-02
1.841310416340932454e-01 8.605920108700737536e-02
1.849179264274013468e-01 8.605920108700737536e-02
1.857048112207094481e-01 8.605920108700737536e-02
1.864916960140175217e-01 8.605920108700737536e-02
1.872785808073256231e-01 8.605920108700737536e-02
1.880654656006336967e-01 8.605920108700737536e-02
1.888523503939417980e-01 8.605920108700737536e-02
1.896392351872498994e-01 8.605920108700737536e-02
1.904261199805579730e-01 8.605920108700737536e-02
1.912130047738660743e-01 8.605920108700737536e-02
1.919998895671741757e-01 8.605920108700737536e-02
1.927867743604822492e-01 8.605920108700737536e-02
1.935736591537903506e-01 8.605920108700737536e-02
1.943605439470984242e-01 8.605920108700737536e-02
1.951474287404065255e-01 8.605920108700737536e-02
1.959343135337146269e-01 8.605920108700737536e-02
1.967211983270227005e-01 8.605920108700737536e-02
1.975080831203308018e-01 8.605920108700737536e-02
1.982949679136389032e-01 8.605920108700737536e-02
1.990818527069469768e-01 8.605920108700737536e-02
1.998687375002550781e-01 8.605920108700737536e-02
2.006556222935631517e-01 8.605920108700737536e-02
2.014425070868712531e-01 8.605920108700737536e-02
2.022293918801793544e-01 8.605920108700737536e-02
2.030162766734874280e-01 8.605920108700737536e-02
2.038031614667955294e-01 8.605920108700737536e-02
2.045900462601036029e-01 8.605920108700737536e-02
2.053769310534117043e-01 8.605920108700737536e-02
2.061638158467198056e-01 8.605920108700737536e-02
2.069507006400278792e-01 8.605920108700737536e-02
2.077375854333359806e-01 8.605920108700737536e-02
2.085244702266440819e-01 8.605920108700737536e-02
2.093113550199521555e-01 8.605920108700737536e-02
2.100982398132602569e-01 8.605920108700737536e-02
2.108851246065683305e-01 8.605920108700737536e-02
2.116720093998764318e-01 8.605920108700737536e-02
2.124588941931845332e-01 8.605920108700737536e-02
2.132457789864926068e-01 8.605920108700737536e-02
2.140326637798007081e-01 8.605920108700737536e-02
2.148195485731088095e-01 8.605920108700737536e-02
2.156064333664168831e-01 8.605920108700737536e-02
2.163933181597249844e-01 8.605920108700737536e-02
2.171802029530330580e-01 8.605920108700737536e-02
2.179670877463411593e-01 8.605920108700737536e-02
2.187539725396492607e-01 8.605920108700737536e-02
2.195408573329573343e-01 8.605920108700737536e-02
2.203277421262654356e-01 8.605920108700737536e-02
2.211146269195735370e-01 8.605920108700737536e-02
2.219015117128816106e-01 8.605920108700737536e-02
2.226883965061897119e-01 8.605920108700737536e-02
2.234752812994977855e-01 8.605920108700737536e-02
2.242621660928058869e-01 8.605920108700737536e-02
2.250490508861139882e-01 8.605920108700737536e-02
2.258359356794220618e-01 8.605920108700737536e-02
2.266228204727301632e-01 8.605920108700737536e-02
2.274097052660382368e-01 8.605920108700737536e-02
2.281965900593463381e-01 8.605920108700737536e-02
2.289834748526544395e-01 8.605920108700737536e-02
2.297703596459625131e-01 8.605920108700737536e-02
2.305572444392706144e-01 8.605920108700737536e-02
2.313441292325787157e-01 8.605920108700737536e-02
2.321310140258867893e-01 8.605920108700737536e-02
2.329178988191948907e-01 8.605920108700737536e-02
2.337047836125029643e-01 8.605920108700737536e-02
2.344916684058110656e-01 8.605920108700737536e-02
2.352785531991191670e-01 8.605920108700737536e-02
2.360654379924272406e-01 8.605920108700737536e-02
2.368523227857353419e-01 8.605920108700737536e-02
2.376392075790434433e-01 8.605920108700737536e-02
2.384260923723515169e-01 8.605920108700737536e-02
2.392129771656596182e-01 8.605920108700737536e-02
2.399998619589676918e-01 8.605920108700737536e-02
2.407867467522757932e-01 8.605920108700737536e-02
2.415736315455838945e-01 8.605920108700737536e-02
2.423605163388919681e-01 8.605920108700737536e-02
2.431474011322000695e-01 8.605920108700737536e-02
2.439342859255081708e-01 8.605920108700737536e-02
2.447211707188162444e-01 8.605920108700737536e-02
2.455080555121243457e-01 8.605920108700737536e-02
2.462949403054324193e-01 8.605920108700737536e-02
2.470818250987405207e-01 8.605920108700737536e-02
2.478687098920486220e-01 8.605920108700737536e-02
2.486555946853566956e-01 8.605920108700737536e-02
2.494424794786647970e-01 8.605920108700781945e-02
2.502293642719728983e-01 8.605920108700870763e-02
2.510162490652809719e-01 8.605920108701026194e-02
2.518031338585890455e-01 8.605920108701514692e-02
2.525900186518971746e-01 8.605920108702225235e-02
2.533769034452052482e-01 8.605920108704601112e-02
2.541637882385133218e-01 8.605920108708020599e-02
2.549506730318214509e-01 8.605920108718478900e-02
2.557375578251295245e-01 8.605920108733489116e-02
2.565244426184375981e-01 8.605920108775966249e-02
2.573113274117457272e-01 8.605920108836762061e-02
2.580982122050538008e-01 8.605920108995412932e-02
2.588850969983618744e-01 8.605920109223053061e-02
2.596719817916699480e-01 8.605920109770548443e-02
2.604588665849780771e-01 8.605920110559495129e-02
2.612457513782861507e-01 8.605920112309517478e-02
2.620326361715942243e-01 8.605920114847664948e-02
2.628195209649023534e-01 8.605920120049859179e-02
2.636064057582104270e-01 8.605920127657351593e-02
2.643932905515185006e-01 8.605920142122380767e-02
2.651801753448266297e-01 8.605920163473701479e-02
2.659670601381347033e-01 8.605920201387862178e-02
2.667539449314427769e-01 8.605920257868837631e-02
2.675408297247509060e-01 8.605920352440010745e-02
2.683277145180589796e-01 8.605920494381180674e-02
2.691145993113670531e-01 8.605920721206006263e-02
2.699014841046751823e-01 8.605921063042254460e-02
2.706883688979832558e-01 8.605921591174237051e-02
2.714752536912913294e-01 8.605922386737563379e-02
2.722621384845994030e-01 8.605923588737995900e-02
2.730490232779075321e-01 8.605925390205371173e-02
2.738359080712156057e-01 8.605928073101831721e-02
2.746227928645236793e-01 8.605932059128540423e-02
2.754096776578318084e-01 8.605937933257101768e-02
2.761965624511398820e-01 8.605946567157207738e-02
2.769834472444479556e-01 8.605959167866461534e-02
2.777703320377560847e-01 8.605977478182658125e-02
2.785572168310641583e-01 8.606003928647298906e-02
2.793441016243722319e-01 8.606041930182417588e-02
2.801309864176803610e-01 8.606096231631576998e-02
2.809178712109884346e-01 8.606173382068149635e-02
2.817047560042965082e-01 8.606282400629527984e-02
2.824916407976045818e-01 8.606435587745764337e-02
2.832785255909127109e-01 8.606649643062658228e-02
2.840654103842207845e-01 8.606947096758710281e-02
2.848522951775288581e-01 8.607358122146901991e-02
2.856391799708369872e-01 8.607922919147514840e-02
2.864260647641450608e-01 8.608694649450887582e-02
2.872129495574531344e-01 8.609743192385788113e-02
2.879998343507612635e-01 8.611159786929878379e-02
2.887867191440693371e-01 8.613062771720625399e-02
2.895736039373774107e-01 8.615604595096248985e-02
2.903604887306855398e-01 8.618980367675632692e-02
2.911473735239936134e-01 8.623437991295967997e-02
2.919342583173016870e-01 8.629290398704814180e-02
2.927211431106098161e-01 8.636929643516166877e-02
2.935080279039178897e-01 8.646843646497193170e-02
2.942949126972259632e-01 8.659634907271285265e-02
2.950817974905340368e-01 8.676042364265024176e-02
2.958686822838421659e-01 8.696964912625704258e-02
2.966555670771502395e-01 8.723488383418387393e-02
2.974424518704583131e-01 8.756913421682144261e-02
2.982293366637664422e-01 8.798786190750740310e-02
2.990162214570745158e-01 8.850929496935378005e-02
2.998031062503825894e-01 8.915473538564633316e-02
3.005899910436907185e-01 8.994887916110827497e-02
3.013768758369987921e-01 9.092007372660293463e-02
3.021637606303068657e-01 9.210059215832244739e-02
3.029506454236149948e-01 9.352678450814044808e-02
3.037375302169230684e-01 9.523921088846321048e-02
3.045244150102311420e-01 9.728262429999090521e-02
3.053112998035392156e-01 9.970587189134394457e-02
3.060981845968473447e-01 1.025616166256944073e-01
3.068850693901554183e-01 1.059059015352072919e-01
3.076719541834634919e-01 1.097975229343262082e-01
3.084588389767716210e-01 1.142972018592542938e-01
3.092457237700796946e-01 1.194665952332063519e-01
3.100326085633877682e-01 1.253669535697465864e-01
3.108194933566958973e-01 1.320577271594112201e-01
3.116063781500039709e-01 1.395949146727484269e-01
3.123932629433120445e-01 1.480292200066930519e-01
3.131801477366201736e-01 1.574042434754192588e-01
3.139670325299282472e-01 1.677540891450752802e-01
3.147539173232363208e-01 1.791019738824444207e-01
3.155408021165444499e-01 1.914578003452032107e-01
3.163276869098525235e-01 2.048160848651123800e-01
3.171145717031605971e-01 2.191554537290134608e-01
3.179014564964686707e-01 2.344356094166513138e-01
3.186883412897767998e-01 2.505980518347004082e-01
3.194752260830848734e-01 2.675643153002540409e-01
3.202621108763929469e-01 2.852365180524647492e-01
3.210489956697010761e-01 3.034976599046816936e-01
3.218358804630091496e-01 3.222122862376823882e-01
3.226227652563172232e-01 3.412291897652357520e-01
3.234096500496253523e-01 3.603812731561915061e-01
3.241965348429334259e-01 3.794905404318758002e-01
3.249834196362414995e-01 3.983695623304641664e-01
3.257703044295496286e-01 4.168244528283637784e-01
3.265571892228577022e-01 4.346596773670625691e-01
3.273440740161657758e-01 4.516806172407812348e-01
3.281309588094738494e-01 4.676966834957658747e-01
3.289178436027819785e-01 4.825266288761407285e-01
3.297047283960900521e-01 4.959985478239063994e-01
3.304916131893981257e-01 5.079539062309674780e-01
3.312784979827062548e-01 5.182513880206096601e-01
3.320653827760143284e-01 5.267684520971469553e-01
3.328522675693224020e-01 5.334003249079155573e-01
3.336391523626305311e-01 5.380623816603786747e-01
3.344260371559386047e-01 5.406906958337676095e-01
3.352129219492466783e-01 5.412387421092417217e-01
3.359998067425548074e-01 5.396836241684743740e-01
3.367866915358628810e-01 5.360132527553886916e-01
3.375735763291709546e-01 5.302364200562224017e-01
3.383604611224790837e-01 5.223791362885947809e-01
3.391473459157871573e-01 5.124765701974560717e-01
3.399342307090952309e-01 5.005781778303926011e-01
3.407211155024033045e-01 4.867392766924820702e-01
3.415080002957114336e-01 4.710214120873876809e-01
3.422948850890195072e-01 4.534974858926623664e-01
3.430817698823275808e-01 4.342400336447660436e-01
3.438686546756357099e-01 4.133237889267176168e-01
3.446555394689437835e-01 3.908275150735622816e-01
3.454424242622518570e-01 3.668281437148781521e-01
3.462293090555599862e-01 3.413952796583796800e-01
3.470161938488680597e-01 3.146047555103652638e-01
3.478030786421761333e-01 2.865254433963628777e-01
3.485899634354842624e-01 2.572218193487811888e-01
3.493768482287923360e-01 2.267579930589354031e-01
3.501637330221004096e-01 1.951929454428358301e-01
3.509506178154085387e-01 1.625830930288403309e-01
3.517375026087166123e-01 1.289815552754673966e-01
3.525243874020246859e-01 9.444621407544762093e-02
3.533112721953327595e-01 5.904044643790995472e-02
3.540981569886408886e-01 2.282433230214420128e-02
3.548850417819489622e-01 -1.412702840773694124e-02
3.556719265752570358e-01 -5.173670406215491457e-02
3.564588113685651649e-01 -8.990321817828461626e-02
3.572456961618732385e-01 -1.285104406295718427e-01
3.580325809551813121e-01 -1.674305183744786429e-01
3.588194657484894412e-01 -2.064993306032374409e-01
3.596063505417975148e-01 -2.455450633431225382e-01
3.603932353351055884e-01 -2.843574368066192903e-01
3.611801201284137175e-01 -3.227049234228054342e-01
3.619670049217217911e-01 -3.603332824729782446e-01
3.627538897150298647e-01 -3.969662927728412338e-01
3.635407745083379383e-01 -4.323075843779702332e-01
3.643276593016460674e-01 -4.660494307700507877e-01
3.651145440949541410e-01 -4.978729320274249970e-01
3.659014288882622146e-01 -5.274731091899776958e-01
3.666883136815703437e-01 -5.545312455065976032e-01
3.674751984748784173e-01 -5.787542681026993652e-01
3.682620832681864909e-01 -5.998758470035039370e-01
3.690489680614946200e-01 -6.176604248860633195e-01
3.698358528548026936e-01 -6.319017517148883822e-01
3.706227376481107672e-01 -6.424538405643265282e-01
3.714096224414188963e-01 -6.492070180695912462e-01
3.721965072347269698e-01 -6.521058293476948986e-01
3.729833920280350434e-01 -6.511652027981864599e-01
3.737702768213431725e-01 -6.464477827480088479e-01
3.745571616146512461e-01 -6.380707525543590775e-01
3.753440464079593197e-01 -6.262079868586123421e-01
3.761309312012673933e-01 -6.110809846442635251e-01
3.769178159945755224e-01 -5.929539236321693663e-01
3.777047007878835960e-01 -5.721259671175897843e-01
3.784915855811916696e-01 -5.489209148343048295e-01
3.792784703744997987e-01 -5.236895383790836078e-01
3.800653551678078723e-01 -4.967865475154472632e-01
3.808522399611159459e-01 -4.685768179722544780e-01
3.816391247544240750e-01 -4.394113045168208664e-01
3.824260095477321486e-01 -4.096382143582628643e-01
3.832128943410402222e-01 -3.795790118058912643e-01
3.839997791343483513e-01 -3.495441709362194782e-01
3.847866639276564249e-01 -3.198067990342515765e-01
3.855735487209644985e-01 -2.906094139037068702e-01
3.863604335142725721e-01 -2.621655924019391515e-01
3.871473183075807012e-01 -2.346618021454033309e-01
3.879342031008887748e-01 -2.082438468892054972e-01
3.887210878941968484e-01 -1.830307874886457631e-01
3.895079726875049775e-01 -1.591123775115658168e-01
3.902948574808130511e-01 -1.365545583547475017e-01
3.910817422741211247e-01 -1.153928651042340769e-01
3.918686270674292538e-01 -9.564891188452639970e-02
3.926555118607373274e-01 -7.732856015311595499e-02
3.934423966540454010e-01 -6.041898797173972380e-02
3.942292814473535301e-01 -4.490407633229553941e-02
3.950161662406616037e-01 -3.075525062951134370e-02
3.958030510339696773e-01 -1.794027284718280324e-02
3.965899358272778064e-01 -6.421409852707116173e-03
3.973768206205858800e-01 3.836507098866182019e-03
3.981637054138939535e-01 1.288073600856365353e-02
3.989505902072020271e-01 2.074937635008144987e-02
3.997374750005101562e-01 2.748199296148867710e-02
4.005243597938182298e-01 3.313023993693064995e-02
4.013112445871263034e-01 3.773624650212936693e-02
4.020981293804344325e-01 4.135716186762894431e-02
4.028850141737425061e-01 4.404610549194765134e-02
4.036718989670505797e-01 4.585876122125664978e-02
4.044587837603587088e-01 4.687242702622795854e-02
4.052456685536667824e-01 4.715670771457558530e-02
4.060325533469748560e-01 4.680245587742071223e-02
4.068194381402829851e-01 4.590821726884297682e-02
4.076063229335910587e-01 4.457803275931948583e-02
4.083932077268991323e-01 4.292327004119322886e-02
4.091800925202072059e-01 4.107654459021370386e-02
4.099669773135153350e-01 3.916717481229148312e-02
4.107538621068234086e-01 3.733253861738838886e-02
4.115407469001314822e-01 3.571990512498368631e-02
4.123276316934396113e-01 3.447910784220886704e-02
4.131145164867476849e-01 3.375338613651734931e-02
4.139014012800557585e-01 3.368304864661686437e-02
4.146882860733638876e-01 3.441133473996105252e-02
4.154751708666719612e-01 3.605913697731599754e-02
4.162620556599800348e-01 3.873599134555805179e-02
4.170489404532881639e-01 4.254777042063095926e-02
4.178358252465962375e-01 4.756224730478275653e-02
4.186227100399043111e-01 5.383547218527784395e-02
4.194095948332124402e-01 6.139382162082851480e-02
4.201964796265205138e-01 7.023766195252845179e-02
4.209833644198285874e-01 8.034611173806327500e-02
4.217702492131366609e-01 9.165835835595648184e-02
4.225571340064447901e-01 1.040905096958582021e-01
4.233440187997528636e-01 1.175286336777734419e-01
4.241309035930609372e-01 1.318445109190711229e-01
4.249177883863690663e-01 1.468721889045174755e-01
4.257046731796771399e-01 1.624303287929629303e-01
4.264915579729852135e-01 1.783295322392068893e-01
4.272784427662933426e-01 1.943598857968276139e-01
4.280653275596014162e-01 2.103140404070562575e-01
4.288522123529094898e-01 2.259806172590981266e-01
4.296390971462176189e-01 2.411515346119981196e-01
4.304259819395256925e-01 2.556238395001055874e-01
4.312128667328337661e-01 2.692235199041359550e-01
4.319997515261418397e-01 2.817897520841603498e-01
4.327866363194499688e-01 2.931884552000560973e-01
4.335735211127580424e-01 3.033075288772946188e-01
4.343604059060661160e-01 3.120704078273903725e-01
4.351472906993742451e-01 3.194312994136894179e-01
4.359341754926823187e-01 3.253737182869964606e-01
4.367210602859903923e-01 3.299229419827442999e-01
4.375079450792985214e-01 3.331178026568155648e-01
4.382948298726065950e-01 3.350403607140939322e-01
4.390817146659146686e-01 3.357876965442860850e-01
4.398685994592227977e-01 3.354792373437853747e-01
4.406554842525308713e-01 3.342530937047396566e-01
4.414423690458389449e-01 3.322576337699081339e-01
4.422292538391470740e-01 3.296419583642358209e-01
4.430161386324551476e-01 3.265610297701593279e-01
4.438030234257632212e-01 3.231698102701161535e-01
4.445899082190712948e-01 3.196082421617201241e-01
4.453767930123794239e-01 3.160082082385349267e-01
4.461636778056874975e-01 3.124832742394620944e-01
4.469505625989955711e-01 3.091286888487418949e-01
4.477374473923037002e-01 3.060261461301649888e-01
4.485243321856117737e-01 3.032291318833431060e-01
4.493112169789198473e-01 3.007819733805572326e-01
4.500981017722279764e-01 2.986945618313243678e-01
4.508849865655360500e-01 2.969654318712722230e-01
4.516718713588441236e-01 2.955733357169927356e-01
4.524587561521522527e-01 2.944900651043074191e-01
4.532456409454603263e-01 2.936646986212569921e-01
4.540325257387683999e-01 2.930342255998057421e-01
4.548194105320764735e-01 2.925447938992484787e-01
4.556062953253846026e-01 2.921231353009390297e-01
4.563931801186926762e-01 2.917033084080959959e-01
4.571800649120007498e-01 2.912219362115897603e-01
4.579669497053088789e-01 2.906105129269864751e-01
4.587538344986169525e-01 2.898184834834203194e-01
4.595407192919250261e-01 2.887963918333045221e-01
4.603276040852331552e-01 2.875094355727825235e-01
4.611144888785412288e-01 2.859294064376753930e-01
4.619013736718493024e-01 2.840372546911351659e-01
4.626882584651574315e-01 2.818282178989495179e-01
4.634751432584655051e-01 2.793074248364240120e-01
4.642620280517735787e-01 2.764876974418217781e-01
4.650489128450817078e-01 2.733899171574569742e-01
4.658357976383897814e-01 2.700485200460931434e-01
4.666226824316978550e-01 2.664928133951887101e-01
4.674095672250059286e-01 2.627660254537453888e-01
4.681964520183140577e-01 2.589077210598320633e-01
4.689833368116221313e-01 2.549581977337040950e-01
4.697702216049302049e-01 2.509544559257779195e-01