0.000000000000000000e+00 4.236822553552133108e-01
7.868847933080908323e-04 -1.235495524547010060e-01
1.573769586616181665e-03 -1.235495524547010060e-01
2.360654379924272388e-03 -1.235495524547010060e-01
3.147539173232363329e-03 -1.235495524547010060e-01
3.934423966540453836e-03 -1.235495524547010060e-01
4.721308759848544777e-03 -1.235495524547010060e-01
5.508193553156635718e-03 -1.235495524547010060e-01
6.295078346464726658e-03 -1.235495524547010060e-01
7.081963139772817599e-03 -1.235495524547010060e-01
7.868847933080907672e-03 -1.235495524547010060e-01
8.655732726388998613e-03 -1.235495524547010060e-01
9.442617519697089554e-03 -1.235495524547010060e-01
1.022950231300518049e-02 -1.235495524547010060e-01
1.101638710631327144e-02 -1.235495524547010060e-01
1.180327189962136238e-02 -1.235495524547010060e-01
1.259015669292945332e-02 -1.235495524547010060e-01
1.337704148623754426e-02 -1.235495524547010060e-01
1.416392627954563520e-02 -1.235495524547010060e-01
1.495081107285372614e-02 -1.235495524547010060e-01
1.573769586616181534e-02 -1.235495524547010060e-01
1.652458065946990629e-02 -1.235495524547010060e-01
1.731146545277799723e-02 -1.235495524547010060e-01
1.809835024608608817e-02 -1.235495524547010060e-01
1.888523503939417911e-02 -1.235495524547010060e-01
1.967211983270227005e-02 -1.235495524547010060e-01
2.045900462601036099e-02 -1.235495524547010060e-01
2.124588941931845193e-02 -1.235495524547010060e-01
2.203277421262654287e-02 -1.235495524547010060e-01
2.281965900593463381e-02 -1.235495524547010060e-01
2.360654379924272475e-02 -1.235495524547010060e-01
2.439342859255081569e-02 -1.235495524547010060e-01
2.518031338585890663e-02 -1.235495524547010060e-01
2.596719817916699757e-02 -1.235495524547010060e-01
2.675408297247508851e-02 -1.235495524547010060e-01
2.754096776578317946e-02 -1.235495524547010060e-01
2.832785255909127040e-02 -1.235495524547010060e-01
2.911473735239936134e-02 -1.235495524547010060e-01
2.990162214570745228e-02 -1.235495524547010060e-01
3.068850693901554322e-02 -1.235495524547010060e-01
3.147539173232363069e-02 -1.235495524547010060e-01
3.226227652563172510e-02 -1.235495524547010060e-01
3.304916131893981257e-02 -1.235495524547010060e-01
3.383604611224790698e-02 -1.235495524547010060e-01
3.462293090555599445e-02 -1.235495524547010060e-01
3.540981569886408886e-02 -1.235495524547010060e-01
3.619670049217217633e-02 -1.235495524547010060e-01
3.698358528548027074e-02 -1.235495524547010060e-01
3.777047007878835821e-02 -1.235495524547010060e-01
3.855735487209645262e-02 -1.235495524547010060e-01
3.934423966540454010e-02 -1.235495524547010060e-01
4.013112445871263451e-02 -1.235495524547010060e-01
4.091800925202072198e-02 -1.235495524547010060e-01
4.170489404532881639e-02 -1.235495524547010060e-01
4.249177883863690386e-02 -1.235495524547010060e-01
4.327866363194499827e-02 -1.235495524547010060e-01
4.406554842525308574e-02 -1.235495524547010060e-01
4.485243321856118015e-02 -1.235495524547010060e-01
4.563931801186926762e-02 -1.235495524547010060e-01
4.642620280517736203e-02 -1.235495524547010060e-01
4.721308759848544950e-02 -1.235495524547010060e-01
4.799997239179354391e-02 -1.235495524547010060e-01
4.878685718510163138e-02 -1.235495524547010060e-01
4.957374197840972579e-02 -1.235495524547010060e-01
5.036062677171781327e-02 -1.235495524547010060e-01
5.114751156502590074e-02 -1.235495524547010060e-01
5.193439635833399515e-02 -1.235495524547010060e-01
5.272128115164208262e-02 -1.235495524547010060e-01
5.350816594495017703e-02 -1.235495524547010060e-01
5.429505073825826450e-02 -1.235495524547010060e-01
5.508193553156635891e-02 -1.235495524547010060e-01
5.586882032487444638e-02 -1.235495524547010060e-01
5.665570511818254079e-02 -1.235495524547010060e-01
5.744258991149062826e-02 -1.235495524547010060e-01
5.822947470479872267e-02 -1.235495524547010060e-01
5.901635949810681014e-02 -1.235495524547010060e-01
5.980324429141490455e-02 -1.235495524547010060e-01
6.059012908472299203e-02 -1.235495524547010060e-01
6.137701387803108644e-02 -1.235495524547010060e-01
6.216389867133917391e-02 -1.235495524547010060e-01
6.295078346464726138e-02 -1.235495524547010060e-01
6.373766825795536273e-02 -1.235495524547010060e-01
6.452455305126345020e-02 -1.235495524547010060e-01
6.531143784457153767e-02 -1.235495524547010060e-01
6.609832263787962514e-02 -1.235495524547010060e-01
6.688520743118772649e-02 -1.235495524547010060e-01
6.767209222449581396e-02 -1.235495524547010060e-01
6.845897701780390143e-02 -1.235495524547010060e-01
6.924586181111198890e-02 -1.235495524547010060e-01
7.003274660442009025e-02 -1.235495524547010060e-01
7.081963139772817772e-02 -1.235495524547010060e-01
7.160651619103626520e-02 -1.235495524547010060e-01
7.239340098434435267e-02 -1.235495524547010060e-01
7.318028577765245402e-02 -1.235495524547010060e-01
7.396717057096054149e-02 -1.235495524547010060e-01
7.475405536426862896e-02 -1.235495524547010060e-01
7.554094015757671643e-02 -1.235495524547010060e-01
7.632782495088480390e-02 -1.235495524547010060e-01
7.711470974419290525e-02 -1.235495524547010060e-01
7.790159453750099272e-02 -1.235495524547010060e-01
7.868847933080908019e-02 -1.235495524547010060e-01
7.947536412411716766e-02 -1.235495524547010060e-01
8.026224891742526901e-02 -1.235495524547010060e-01
8.104913371073335648e-02 -1.235495524547010060e-01
8.183601850404144396e-02 -1.235495524547010060e-01
8.262290329734953143e-02 -1.235495524547010060e-01
8.340978809065763278e-02 -1.235495524547010060e-01
8.419667288396572025e-02 -1.235495524547010060e-01
8.498355767727380772e-02 -1.235495524547010060e-01
8.577044247058189519e-02 -1.235495524547010060e-01
8.655732726388999654e-02 -1.235495524547010060e-01
8.734421205719808401e-02 -1.235495524547010060e-01
8.813109685050617148e-02 -1.235495524547010060e-01
8.891798164381425895e-02 -1.235495524547010060e-01
8.970486643712236030e-02 -1.235495524547010060e-01
9.049175123043044777e-02 -1.235495524547010060e-01
9.127863602373853524e-02 -1.235495524547010060e-01
9.206552081704662271e-02 -1.235495524547010060e-01
9.285240561035472406e-02 -1.235495524547010060e-01
9.363929040366281153e-02 -1.235495524547010060e-01
9.442617519697089901e-02 -1.235495524547010060e-01
9.521305999027898648e-02 -1.235495524547010060e-01
9.599994478358708783e-02 -1.235495524547010060e-01
9.678682957689517530e-02 -1.235495524547010060e-01
9.757371437020326277e-02 -1.235495524547010060e-01
9.836059916351135024e-02 -1.235495524547010060e-01
9.914748395681945159e-02 -1.235495524547010060e-01
9.993436875012753906e-02 -1.235495524547010060e-01
1.007212535434356265e-01 -1.235495524547010060e-01
1.015081383367437140e-01 -1.235495524547010060e-01
1.022950231300518015e-01 -1.235495524547010060e-01
1.030819079233599028e-01 -1.235495524547010060e-01
1.038687927166679903e-01 -1.235495524547010060e-01
1.046556775099760778e-01 -1.235495524547010060e-01
1.054425623032841652e-01 -1.235495524547010060e-01
1.062294470965922666e-01 -1.235495524547010060e-01
1.070163318899003541e-01 -1.235495524547010060e-01
1.078032166832084415e-01 -1.235495524547010060e-01
1.085901014765165290e-01 -1.235495524547010060e-01
1.093769862698246303e-01 -1.235495524547010060e-01
1.101638710631327178e-01 -1.235495524547010060e-01
1.109507558564408053e-01 -1.235495524547010060e-01
1.117376406497488928e-01 -1.235495524547010060e-01
1.125245254430569941e-01 -1.235495524547010060e-01
1.133114102363650816e-01 -1.235495524547010060e-01
1.140982950296731691e-01 -1.235495524547010060e-01
1.148851798229812565e-01 -1.235495524547010060e-01
1.156720646162893579e-01 -1.235495524547010060e-01
1.164589494095974453e-01 -1.235495524547010060e-01
1.172458342029055328e-01 -1.235495524547010060e-01
1.180327189962136203e-01 -1.235495524547010060e-01
1.188196037895217216e-01 -1.235495524547010060e-01
1.196064885828298091e-01 -1.235495524547010060e-01
1.203933733761378966e-01 -1.235495524547010060e-01
1.211802581694459841e-01 -1.235495524547010060e-01
1.219671429627540854e-01 -1.235495524547010060e-01
1.227540277560621729e-01 -1.235495524547010060e-01
1.235409125493702603e-01 -1.235495524547010060e-01
1.243277973426783478e-01 -1.235495524547010060e-01
1.251146821359864492e-01 -1.235495524547010060e-01
1.259015669292945228e-01 -1.235495524547010060e-01
1.266884517226026241e-01 -1.235495524547010060e-01
1.274753365159107255e-01 -1.235495524547010060e-01
1.282622213092187990e-01 -1.235495524547010060e-01
1.290491061025269004e-01 -1.235495524547010060e-01
1.298359908958349740e-01 -1.235495524547010060e-01
1.306228756891430753e-01 -1.235495524547010060e-01
1.314097604824511767e-01 -1.235495524547010060e-01
1.321966452757592503e-01 -1.235495524547010060e-01
1.329835300690673516e-01 -1.235495524547010060e-01
1.337704148623754530e-01 -1.235495524547010060e-01
1.345572996556835266e-01 -1.235495524547010060e-01
1.353441844489916279e-01 -1.235495524547010060e-01
1.361310692422997015e-01 -1.235495524547010060e-01
1.369179540356078029e-01 -1.235495524547010060e-01
1.377048388289159042e-01 -1.235495524547010060e-01
1.384917236222239778e-01 -1.235495524547010060e-01
1.392786084155320792e-01 -1.235495524547010060e-01
1.400654932088401805e-01 -1.235495524547010060e-01
1.408523780021482541e-01 -1.235495524547010060e-01
1.416392627954563554e-01 -1.235495524547010060e-01
1.424261475887644290e-01 -1.235495524547010060e-01
1.432130323820725304e-01 -1.235495524547010060e-01
1.439999171753806317e-01 -1.235495524547010060e-01
1.447868019686887053e-01 -1.235495524547010060e-01
1.455736867619968067e-01 -1.235495524547010060e-01
1.463605715553049080e-01 -1.235495524547010060e-01
1.471474563486129816e-01 -1.235495524547010060e-01
1.479343411419210830e-01 -1.235495524547010060e-01
1.487212259352291566e-01 -1.235495524547010060e-01
1.495081107285372579e-01 -1.235495524547010060e-01
1.502949955218453593e-01 -1.235495524547010060e-01
1.510818803151534329e-01 -1.235495524547010060e-01
1.518687651084615342e-01 -1.235495524547010060e-01
1.526556499017696078e-01 -1.235495524547010060e-01
1.534425346950777092e-01 -1.235495524547010060e-01
1.542294194883858105e-01 -1.235495524547010060e-01
1.550163042816938841e-01 -1.235495524547010060e-01
1.558031890750019854e-01 -1.235495524547010060e-01
1.565900738683100868e-01 -1.235495524547010060e-01
1.573769586616181604e-01 -1.235495524547010060e-01
1.581638434549262617e-01 -1.235495524547010060e-01
1.589507282482343353e-01 -1.235495524547010060e-01
1.597376130415424367e-01 -1.235495524547010060e-01
1.605244978348505380e-01 -1.235495524547010060e-01
1.613113826281586116e-01 -1.235495524547010060e-01
1.620982674214667130e-01 -1.235495524547010060e-01
1.628851522147748143e-01 -1.235495524547010060e-01
1.636720370080828879e-01 -1.235495524547010060e-01
1.644589218013909893e-01 -1.235495524547010060e-01
1.652458065946990629e-01 -1.235495524547010060e-01
1.660326913880071642e-01 -1.235495524547010060e-01
1.668195761813152656e-01 -1.235495524547010060e-01
1.676064609746233391e-01 -1.235495524547010060e-01
1.683933457679314405e-01 -1.235495524547010060e-01
1.691802305612395418e-01 -1.235495524547010060e-01
1.699671153545476154e-01 -1.235495524547010060e-01
1.707540001478557168e-01 -1.235495524547010060e-01
1.715408849411637904e-01 -1.235495524547010060e-01
1.723277697344718917e-01 -1.235495524547010060e-01
1.731146545277799931e-01 -1.235495524547010060e-01
1.739015393210880667e-01 -1.235495524547010060e-01
1.746884241143961680e-01 -1.235495524547010060e-01
1.754753089077042694e-01 -1.235495524547010060e-01
1.762621937010123430e-01 -1.235495524547010060e-01
1.770490784943204443e-01 -1.235495524547010060e-01
1.778359632876285179e-01 -1.235495524547010060e-01
1.786228480809366193e-01 -1.235495524547010060e-01
1.794097328742447206e-01 -1.235495524547010060e-01
1.801966176675527942e-01 -1.235495524547010060e-01
1.809835024608608955e-01 -1.235495524547010060e-01
1.817703872541689691e-01 -1.235495524547010060e-01
1.825572720474770705e-01 -1.235495524547010060e-01
1.833441568407851718e-01 -1.235495524547010060e-01
1.841310416340932454e-01 -1.235495524547010060e-01
1.849179264274013468e-01 -1.235495524547010060e-01
1.857048112207094481e-01 -1.235495524547010060e-01
1.864916960140175217e-01 -1.235495524547010060e-01
1.872785808073256231e-01 -1.235495524547010060e-01
1.880654656006336967e-01 -1.235495524547010060e-01
1.888523503939417980e-01 -1.235495524547010060e-01
1.896392351872498994e-01 -1.235495524547010060e-01
1.904261199805579730e-01 -1.235495524547010060e-01
1.912130047738660743e-01 -1.235495524547010060e-01
1.919998895671741757e-01 -1.235495524547010060e-01
1.927867743604822492e-01 -1.235495524547010060e-01
1.935736591537903506e-01 -1.235495524547010060e-01
1.943605439470984242e-01 -1.235495524547010060e-01
1.951474287404065255e-01 -1.235495524547010060e-01
1.959343135337146269e-01 -1.235495524547010060e-01
1.967211983270227005e-01 -1.235495524547010060e-01
1.975080831203308018e-01 -1.235495524547010060e-01
1.982949679136389032e-01 -1.235495524547010060e-01
1.990818527069469768e-01 -1.235495524547010060e-01
1.998687375002550781e-01 -1.235495524547010060e-01
2.006556222935631517e-01 -1.235495524547010060e-01
2.014425070868712531e-01 -1.235495524547010060e-01
2.022293918801793544e-01 -1.235495524547010060e-01
2.030162766734874280e-01 -1.235495524547010060e-01
2.038031614667955294e-01 -1.235495524547010060e-01
2.045900462601036029e-01 -1.235495524547010060e-01
2.053769310534117043e-01 -1.235495524547010060e-01
2.061638158467198056e-01 -1.235495524547010060e-01
2.069507006400278792e-01 -1.235495524547010060e-01
2.077375854333359806e-01 -1.235495524547010060e-01
2.085244702266440819e-01 -1.235495524547010060e-01
2.093113550199521555e-01 -1.235495524547010060e-01
2.100982398132602569e-01 -1.235495524547010060e-01
2.108851246065683305e-01 -1.235495524547010060e-01
2.116720093998764318e-01 -1.235495524547010060e-01
2.124588941931845332e-01 -1.235495524547010060e-01
2.132457789864926068e-01 -1.235495524547010060e-01
2.140326637798007081e-01 -1.235495524547010060e-01
2.148195485731088095e-01 -1.235495524547010060e-01
2.156064333664168831e-01 -1.235495524547010060e-01
2.163933181597249844e-01 -1.235495524547010060e-01
2.171802029530330580e-01 -1.235495524547010060e-01
2.179670877463411593e-01 -1.235495524547010060e-01
2.187539725396492607e-01 -1.235495524547010060e-01
2.195408573329573343e-01 -1.235495524547010060e-01
2.203277421262654356e-01 -1.235495524547010060e-01
2.211146269195735370e-01 -1.235495524547010060e-01
2.219015117128816106e-01 -1.235495524547010060e-01
2.226883965061897119e-01 -1.235495524547010060e-01
2.234752812994977855e-01 -1.235495524547010060e-01
2.242621660928058869e-01 -1.235495524547010060e-01
2.250490508861139882e-01 -1.235495524547010060e-01
2.258359356794220618e-01 -1.235495524547010060e-01
2.266228204727301632e-01 -1.235495524547010060e-01
2.274097052660382368e-01 -1.235495524547010060e-01
2.281965900593463381e-01 -1.235495524547010060e-01
2.289834748526544395e-01 -1.235495524547010060e-01
2.297703596459625131e-01 -1.235495524547010060e-01
2.305572444392706144e-01 -1.235495524547010060e-01
2.313441292325787157e-01 -1.235495524547010060e-01
2.321310140258867893e-01 -1.235495524547010060e-01
2.329178988191948907e-01 -1.235495524547010060e-01
2.337047836125029643e-01 -1.235495524547010060e-01
2.344916684058110656e-01 -1.235495524547010060e-01
2.352785531991191670e-01 -1.235495524547010060e-01
2.360654379924272406e-01 -1.235495524547010060e-01
2.368523227857353419e-01 -1.235495524547010060e-01
2.376392075790434433e-01 -1.235495524547010060e-01
2.384260923723515169e-01 -1.235495524547010060e-01
2.392129771656596182e-01 -1.235495524547010060e-01
2.399998619589676918e-01 -1.235495524547010060e-01
2.407867467522757932e-01 -1.235495524547010060e-01
2.415736315455838945e-01 -1.235495524547010060e-01
2.423605163388919681e-01 -1.235495524547010060e-01
2.431474011322000695e-01 -1.235495524547010060e-01
2.439342859255081708e-01 -1.235495524547010060e-01
2.447211707188162444e-01 -1.235495524547010060e-01
2.455080555121243457e-01 -1.235495524547010060e-01
2.462949403054324193e-01 -1.235495524547010060e-01
2.470818250987405207e-01 -1.235495524547010060e-01
2.478687098920486220e-01 -1.235495524547010060e-01
2.486555946853566956e-01 -1.235495524547010060e-01
2.494424794786647970e-01 -1.235495524547010060e-01
2.502293642719728983e-01 -1.235495524547010060e-01
2.510162490652809719e-01 -1.235495524547010060e-01
2.518031338585890455e-01 -1.235495524547010060e-01
2.525900186518971746e-01 -1.235495524547010060e-01
2.533769034452052482e-01 -1.235495524547010060e-01
2.541637882385133218e-01 -1.235495524547010060e-01
2.549506730318214509e-01 -1.235495524547010060e-01
2.557375578251295245e-01 -1.235495524547010060e-01
2.565244426184375981e-01 -1.235495524547010060e-01
2.573113274117457272e-01 -1.235495524547010060e-01
2.580982122050538008e-01 -1.235495524547011170e-01
2.588850969983618744e-01 -1.235495524547013391e-01
2.596719817916699480e-01 -1.235495524547014501e-01
2.604588665849780771e-01 -1.235495524547025603e-01
2.612457513782861507e-01 -1.235495524547042256e-01
2.620326361715942243e-01 -1.235495524547096657e-01
2.628195209649023534e-01 -1.235495524547178814e-01
2.636064057582104270e-01 -1.235495524547441937e-01
2.643932905515185006e-01 -1.235495524547834956e-01
2.651801753448266297e-01 -1.235495524548975155e-01
2.659670601381347033e-01 -1.235495524550662694e-01
2.667539449314427769e-01 -1.235495524555166869e-01
2.675408297247509060e-01 -1.235495524561779357e-01
2.683277145180589796e-01 -1.235495524577978621e-01
2.691145993113670531e-01 -1.235495524601681883e-01
2.699014841046751823e-01 -1.235495524655029209e-01
2.706883688979832558e-01 -1.235495524733084549e-01
2.714752536912913294e-01 -1.235495524894806296e-01
2.722621384845994030e-01 -1.235495525132218608e-01
2.730490232779075321e-01 -1.235495525587092525e-01
2.738359080712156057e-01 -1.235495526258852950e-01
2.746227928645236793e-01 -1.235495527457969311e-01
2.754096776578318084e-01 -1.235495529241866786e-01
2.761965624511398820e-01 -1.235495532240478145e-01
2.769834472444479556e-01 -1.235495536731868738e-01
2.777703320377560847e-01 -1.235495543935255514e-01
2.785572168310641583e-01 -1.235495554769400206e-01
2.793441016243722319e-01 -1.235495571573609341e-01
2.801309864176803610e-01 -1.235495596845092026e-01
2.809178712109884346e-01 -1.235495635180933194e-01
2.817047560042965082e-01 -1.235495692565048431e-01
2.824916407976045818e-01 -1.235495778316646476e-01
2.832785255909127109e-01 -1.235495905624744983e-01
2.840654103842207845e-01 -1.235496093630217285e-01
2.848522951775288581e-01 -1.235496369909189207e-01
2.856391799708369872e-01 -1.235496773385336144e-01
2.864260647641450608e-01 -1.235497359864697886e-01
2.872129495574531344e-01 -1.235498206665990306e-01
2.879998343507612635e-01 -1.235499424041760497e-01
2.887867191440693371e-01 -1.235501161696871408e-01
2.895736039373774107e-01 -1.235503632197793022e-01
2.903604887306855398e-01 -1.235507118879067834e-01
2.911473735239936134e-01 -1.235512020196030125e-01
2.919342583173016870e-01 -1.235518861684700154e-01
2.927211431106098161e-01 -1.235528367820116769e-01
2.935080279039178897e-01 -1.235541492424919729e-01
2.942949126972259632e-01 -1.235559514678390425e-01
2.950817974905340368e-01 -1.235584120782196038e-01
2.958686822838421659e-01 -1.235617511554908399e-01
2.966555670771502395e-01 -1.235662575316893719e-01
2.974424518704583131e-01 -1.235723010870556360e-01
2.982293366637664422e-01 -1.235803604522578425e-01
2.990162214570745158e-01 -1.235910418301753300e-01
2.998031062503825894e-01 -1.236051138103919644e-01
3.005899910436907185e-01 -1.236235409169402777e-01
3.013768758369987921e-01 -1.236475214946616275e-01
3.021637606303068657e-01 -1.236785382736161898e-01
3.029506454236149948e-01 -1.237184031275582186e-01
3.037375302169230684e-01 -1.237693153866291640e-01
3.045244150102311420e-01 -1.238339192633257646e-01
3.053112998035392156e-01 -1.239153585760703891e-01
3.060981845968473447e-01 -1.240173400022258621e-01
3.068850693901554183e-01 -1.241441794411206612e-01
3.076719541834634919e-01 -1.243008435634250786e-01
3.084588389767716210e-01 -1.244929759906376887e-01
3.092457237700796946e-01 -1.247268962816855398e-01
3.100326085633877682e-01 -1.250095610859456308e-01
3.108194933566958973e-01 -1.253484756396934241e-01
3.116063781500039709e-01 -1.257515897237599933e-01
3.123932629433120445e-01 -1.262270429624721135e-01
3.131801477366201736e-01 -1.267828966105999378e-01
3.139670325299282472e-01 -1.274267214375826018e-01
3.147539173232363208e-01 -1.281651139981951903e-01
3.155408021165444499e-01 -1.290029872529375732e-01
3.163276869098525235e-01 -1.299428598372256438e-01
3.171145717031605971e-01 -1.309838831979258655e-01
3.179014564964686707e-01 -1.321206417284143120e-01
3.186883412897767998e-01 -1.333420501899829080e-01
3.194752260830848734e-01 -1.346299808933939524e-01
3.202621108763929469e-01 -1.359574530918746804e-01
3.210489956697010761e-01 -1.372872709722663398e-01
3.218358804630091496e-01 -1.385703914063208808e-01
3.226227652563172232e-01 -1.397440971293048007e-01
3.234096500496253523e-01 -1.407304509680489257e-01
3.241965348429334259e-01 -1.414349338320965987e-01
3.249834196362414995e-01 -1.417452556583577161e-01
3.257703044295496286e-01 -1.415304041668303814e-01
3.265571892228577022e-01 -1.406412501978696605e-01
3.273440740161657758e-01 -1.389092937992753019e-01
3.281309588094738494e-01 -1.361492152904907327e-01
3.289178436027819785e-01 -1.321602156522662108e-01
3.297047283960900521e-01 -1.267292161665002359e-01
3.304916131893981257e-01 -1.196338851025763317e-01
3.312784979827062548e-01 -1.106491234737988494e-01
3.320653827760143284e-01 -9.955225364254138842e-02
3.328522675693224020e-01 -8.612967803018756197e-02
3.336391523626305311e-01 -7.018630508315104599e-02
3.344260371559386047e-01 -5.155402399461805896e-02
3.352129219492466783e-01 -3.009983351927991713e-02
3.359998067425548074e-01 -5.736738044145761606e-03
3.367866915358628810e-01 2.156639406167593087e-02
3.375735763291709546e-01 5.177549095770972443e-02
3.383604611224790837e-01 8.478539691294417757e-02
3.391473459157871573e-01 1.204100139560506655e-01
3.399342307090952309e-01 1.583778050842536977e-01
3.407211155024033045e-01 1.983314483563212161e-01
3.415080002957114336e-01 2.398226482874166177e-01
3.422948850890195072e-01 2.823176703612562122e-01
3.430817698823275808e-01 3.252087559614371681e-01
3.438686546756357099e-01 3.678120469293770789e-01
3.446555394689437835e-01 4.093838431937801836e-01
3.454424242622518570e-01 4.491403194702019430e-01
3.462293090555599862e-01 4.862755124255635497e-01
3.470161938488680597e-01 5.199744651445288302e-01
3.478030786421761333e-01 5.494429751323559596e-01
3.485899634354842624e-01 5.739241978513727194e-01
3.493768482287923360e-01 5.927339292359870004e-01
3.501637330221004096e-01 6.052675238328848462e-01
3.509506178154085387e-01 6.110337936880012588e-01
3.517375026087166123e-01 6.096681528128964356e-01
3.525243874020246859e-01 6.009485289072109548e-01
3.533112721953327595e-01 5.848064323829840205e-01
3.540981569886408886e-01 5.613331826908305455e-01
3.548850417819489622e-01 5.307882100881791132e-01
3.556719265752570358e-01 4.935803766607373966e-01
3.564588113685651649e-01 4.502672845084723097e-01
3.572456961618732385e-01 4.015608102577685745e-01
3.580325809551813121e-01 3.482738353819028188e-01
3.588194657484894412e-01 2.913140198748656040e-01
3.596063505417975148e-01 2.316699659709655634e-01
3.603932353351055884e-01 1.703717847456998058e-01
3.611801201284137175e-01 1.084523545306446124e-01
3.619670049217217911e-01 4.694178640129709201e-02
3.627538897150298647e-01 -1.318584550245005538e-02
3.635407745083379383e-01 -7.101250397630920475e-02
3.643276593016460674e-01 -1.257232321049440715e-01
3.651145440949541410e-01 -1.766023482848612103e-01
3.659014288882622146e-01 -2.230680369254003370e-01
3.666883136815703437e-01 -2.646754616118237591e-01
3.674751984748784173e-01 -3.011219537104644628e-01
3.682620832681864909e-01 -3.322473582757365929e-01
3.690489680614946200e-01 -3.580305749800357651e-01
3.698358528548026936e-01 -3.785843695085910898e-01
3.706227376481107672e-01 -3.941500120008113450e-01
3.714096224414188963e-01 -4.050613027212547346e-01
3.721965072347269698e-01 -4.117469934086986916e-01
3.729833920280350434e-01 -4.147103787625548987e-01
3.737702768213431725e-01 -4.144976459514633227e-01
3.745571616146512461e-01 -4.117009877763813108e-01
3.753440464079593197e-01 -4.069028684036127830e-01
3.761309312012673933e-01 -4.006998693293031266e-01
3.769178159945755224e-01 -3.936587591891819171e-01
3.777047007878835960e-01 -3.863101593364430819e-01
3.784915855811916696e-01 -3.791337563170726899e-01
3.792784703744997987e-01 -3.725593612100657204e-01
3.800653551678078723e-01 -3.669461552068322696e-01
3.808522399611159459e-01 -3.625813276023459597e-01
3.816391247544240750e-01 -3.596938688371639214e-01
3.824260095477321486e-01 -3.584339025535849821e-01
3.832128943410402222e-01 -3.588816791779070314e-01
3.839997791343483513e-01 -3.610570883631996075e-01
3.847866639276564249e-01 -3.649075522439571007e-01
3.855735487209644985e-01 -3.703410595555449714e-01
3.863604335142725721e-01 -3.772038546320601871e-01
3.871473183075807012e-01 -3.853025754549660453e-01
3.879342031008887748e-01 -3.944272564692501426e-01
3.887210878941968484e-01 -4.043274609997412616e-01
3.895079726875049775e-01 -4.147447965100403700e-01
3.902948574808130511e-01 -4.254035751132532184e-01
3.910817422741211247e-01 -4.360139267350793268e-01
3.918686270674292538e-01 -4.463098488849017720e-01
3.926555118607373274e-01 -4.560305276772521621e-01
3.934423966540454010e-01 -4.649089229004839119e-01
3.942292814473535301e-01 -4.727260754173270296e-01
3.950161662406616037e-01 -4.792678687886504640e-01
3.958030510339696773e-01 -4.843437082519965742e-01
3.965899358272778064e-01 -4.878020865370267245e-01
3.973768206205858800e-01 -4.895157098640962046e-01
3.981637054138939535e-01 -4.893953342246492033e-01
3.989505902072020271e-01 -4.873890735672001817e-01
3.997374750005101562e-01 -4.834692553309566376e-01
4.005243597938182298e-01 -4.776261941196413563e-01
4.013112445871263034e-01 -4.699145432408191603e-01
4.020981293804344325e-01 -4.604069431665702705e-01
4.028850141737425061e-01 -4.491808770671132933e-01
4.036718989670505797e-01 -4.363747077464101842e-01
4.044587837603587088e-01 -4.221406342888193164e-01
4.052456685536667824e-01 -4.066405411749760557e-01
4.060325533469748560e-01 -3.900722872145462317e-01
4.068194381402829851e-01 -3.726364984732745134e-01
4.076063229335910587e-01 -3.545441782272031883e-01
4.083932077268991323e-01 -3.360471467795430600e-01
4.091800925202072059e-01 -3.173840799671284740e-01
4.099669773135153350e-01 -2.987978045109127567e-01
4.107538621068234086e-01 -2.805373734580276501e-01
4.115407469001314822e-01 -2.628428462733470861e-01
4.123276316934396113e-01 -2.459701941442007378e-01
4.131145164867476849e-01 -2.301539420233044142e-01
4.139014012800557585e-01 -2.156168540250366084e-01
4.146882860733638876e-01 -2.025733924955387399e-01
4.154751708666719612e-01 -1.912193408024168706e-01
4.162620556599800348e-01 -1.817331869627820673e-01
4.170489404532881639e-01 -1.742629791768736114e-01
4.178358252465962375e-01 -1.689436211785544373e-01
4.186227100399043111e-01 -1.658519043240235247e-01
4.194095948332124402e-01 -1.650639281554600046e-01
4.201964796265205138e-01 -1.666052897915966113e-01
4.209833644198285874e-01 -1.704746056043939806e-01
4.217702492131366609e-01 -1.766359012648219817e-01
4.225571340064447901e-01 -1.850262216970777196e-01
4.233440187997528636e-01 -1.955383357280907619e-01
4.241309035930609372e-01 -2.080414905081170440e-01
4.249177883863690663e-01 -2.223924805350558920e-01
4.257046731796771399e-01 -2.384024405814990644e-01
4.264915579729852135e-01 -2.558845808620979767e-01
4.272784427662933426e-01 -2.746251308447312800e-01
4.280653275596014162e-01 -2.944054772991390179e-01
4.288522123529094898e-01 -3.149959379707443219e-01
4.296390971462176189e-01 -3.361661387909503640e-01
4.304259819395256925e-01 -3.576919320173387318e-01
4.312128667328337661e-01 -3.793477862794514266e-01
4.319997515261418397e-01 -4.009005602526124479e-01
4.327866363194499688e-01 -4.221385588467598815e-01
4.335735211127580424e-01 -4.428611559961488364e-01
4.343604059060661160e-01 -4.628559647966976609e-01
4.351472906993742451e-01 -4.819361954630577705e-01
4.359341754926823187e-01 -4.999288944902764431e-01
4.367210602859903923e-01 -5.166438130229060732e-01
4.375079450792985214e-01 -5.319225256504100940e-01
4.382948298726065950e-01 -5.456100660323510709e-01
4.390817146659146686e-01 -5.575632286666283299e-01
4.398685994592227977e-01 -5.676595624717355459e-01
4.406554842525308713e-01 -5.757752327381268076e-01
4.414423690458389449e-01 -5.818355235516625701e-01
4.422292538391470740e-01 -5.857726371384012198e-01
4.430161386324551476e-01 -5.875339956328375912e-01
4.438030234257632212e-01 -5.871237499190902209e-01
4.445899082190712948e-01 -5.845702643719714597e-01
4.453767930123794239e-01 -5.799385695093435267e-01
4.461636778056874975e-01 -5.733379719463361779e-01
4.469505625989955711e-01 -5.648992245326937001e-01
4.477374473923037002e-01 -5.548146515659231337e-01
4.485243321856117737e-01 -5.432969858571162769e-01
4.493112169789198473e-01 -5.306011608725729189e-01
4.500981017722279764e-01 -5.169907577538407351e-01
4.508849865655360500e-01 -5.027549547612002456e-01
4.516718713588441236e-01 -4.882009173194472584e-01
4.524587561521522527e-01 -4.736115973626838782e-01
4.532456409454603263e-01 -4.592696009180026184e-01
4.540325257387683999e-01 -4.454430059180798374e-01
4.548194105320764735e-01 -4.323611487104824791e-01
4.556062953253846026e-01 -4.202000959632522514e-01
4.563931801186926762e-01 -4.091151599238365133e-01
4.571800649120007498e-01 -3.991872828325528921e-01
4.579669497053088789e-01 -3.904662752988279362e-01
4.587538344986169525e-01 -3.829358796931960907e-01
4.595407192919250261e-01 -3.765165374033789814e-01
4.603276040852331552e-01 -3.711129510481480098e-01
4.611144888785412288e-01 -3.665632361468674771e-01
4.619013736718493024e-01 -3.626708310411589364e-01