0.000000000000000000e+00 5.487508356366399553e-02
7.868847933080908323e-04 1.362775646627691906e-01
1.573769586616181665e-03 1.362775646627691906e-01
2.360654379924272388e-03 1.362775646627691906e-01
3.147539173232363329e-03 1.362775646627691906e-01
3.934423966540453836e-03 1.362775646627691906e-01
4.721308759848544777e-03 1.362775646627691906e-01
5.508193553156635718e-03 1.362775646627691906e-01
6.295078346464726658e-03 1.362775646627691906e-01
7.081963139772817599e-03 1.362775646627691906e-01
7.868847933080907672e-03 1.362775646627691906e-01
8.655732726388998613e-03 1.362775646627691906e-01
9.442617519697089554e-03 1.362775646627691906e-01
1.022950231300518049e-02 1.362775646627691906e-01
1.101638710631327144e-02 1.362775646627691906e-01
1.180327189962136238e-02 1.362775646627691906e-01
1.259015669292945332e-02 1.362775646627691906e-01
1.337704148623754426e-02 1.362775646627691906e-01
1.416392627954563520e-02 1.362775646627691906e-01
1.495081107285372614e-02 1.362775646627691906e-01
1.573769586616181534e-02 1.362775646627691906e-01
1.652458065946990629e-02 1.362775646627691906e-01
1.731146545277799723e-02 1.362775646627691906e-01
1.809835024608608817e-02 1.362775646627691906e-01
1.888523503939417911e-02 1.362775646627691906e-01
1.967211983270227005e-02 1.362775646627691906e-01
2.045900462601036099e-02 1.362775646627691906e-01
2.124588941931845193e-02 1.362775646627691906e-01
2.203277421262654287e-02 1.362775646627691906e-01
2.281965900593463381e-02 1.362775646627691906e-01
2.360654379924272475e-02 1.362775646627691906e-01
2.439342859255081569e-02 1.362775646627691906e-01
2.518031338585890663e-02 1.362775646627691906e-01
2.596719817916699757e-02 1.362775646627691906e-01
2.675408297247508851e-02 1.362775646627691906e-01
2.754096776578317946e-02 1.362775646627691906e-01
2.832785255909127040e-02 1.362775646627691906e-01
2.911473735239936134e-02 1.362775646627691906e-01
2.990162214570745228e-02 1.362775646627691906e-01
3.068850693901554322e-02 1.362775646627691906e-01
3.147539173232363069e-02 1.362775646627691906e-01
3.226227652563172510e-02 1.362775646627691906e-01
3.304916131893981257e-02 1.362775646627691906e-01
3.383604611224790698e-02 1.362775646627691906e-01
3.462293090555599445e-02 1.362775646627691906e-01
3.540981569886408886e-02 1.362775646627691906e-01
3.619670049217217633e-02 1.362775646627691906e-01
3.698358528548027074e-02 1.362775646627691906e-01
3.777047007878835821e-02 1.362775646627691906e-01
3.855735487209645262e-02 1.362775646627691906e-01
3.934423966540454010e-02 1.362775646627691906e-01
4.013112445871263451e-02 1.362775646627691906e-01
4.091800925202072198e-02 1.362775646627691906e-01
4.170489404532881639e-02 1.362775646627691906e-01
4.249177883863690386e-02 1.362775646627691906e-01
4.327866363194499827e-02 1.362775646627691906e-01
4.406554842525308574e-02 1.362775646627691906e-01
4.485243321856118015e-02 1.362775646627691906e-01
4.563931801186926762e-02 1.362775646627691906e-01
4.642620280517736203e-02 1.362775646627691906e-01
4.721308759848544950e-02 1.362775646627691906e-01
4.799997239179354391e-02 1.362775646627691906e-01
4.878685718510163138e-02 1.362775646627691906e-01
4.957374197840972579e-02 1.362775646627691906e-01
5.036062677171781327e-02 1.362775646627691906e-01
5.114751156502590074e-02 1.362775646627691906e-01
5.193439635833399515e-02 1.362775646627691906e-01
5.272128115164208262e-02 1.362775646627691906e-01
5.350816594495017703e-02 1.362775646627691906e-01
5.429505073825826450e-02 1.362775646627691906e-01
5.508193553156635891e-02 1.362775646627691906e-01
5.586882032487444638e-02 1.362775646627691906e-01
5.665570511818254079e-02 1.362775646627691906e-01
5.744258991149062826e-02 1.362775646627691906e-01
5.822947470479872267e-02 1.362775646627691906e-01
5.901635949810681014e-02 1.362775646627691906e-01
5.980324429141490455e-02 1.362775646627691906e-01
6.059012908472299203e-02 1.362775646627691906e-01
6.137701387803108644e-02 1.362775646627691906e-01
6.216389867133917391e-02 1.362775646627691906e-01
6.295078346464726138e-02 1.362775646627691906e-01
6.373766825795536273e-02 1.362775646627691906e-01
6.452455305126345020e-02 1.362775646627691906e-01
6.531143784457153767e-02 1.362775646627691906e-01
6.609832263787962514e-02 1.362775646627691906e-01
6.688520743118772649e-02 1.362775646627691906e-01
6.767209222449581396e-02 1.362775646627691906e-01
6.845897701780390143e-02 1.362775646627691906e-01
6.924586181111198890e-02 1.362775646627691906e-01
7.003274660442009025e-02 1.362775646627691906e-01
7.081963139772817772e-02 1.362775646627691906e-01
7.160651619103626520e-02 1.362775646627691906e-01
7.239340098434435267e-02 1.362775646627691906e-01
7.318028577765245402e-02 1.362775646627691906e-01
7.396717057096054149e-02 1.362775646627691906e-01
7.475405536426862896e-02 1.362775646627691906e-01
7.554094015757671643e-02 1.362775646627691906e-01
7.632782495088480390e-02 1.362775646627691906e-01
7.711470974419290525e-02 1.362775646627691906e-01
7.790159453750099272e-02 1.362775646627691906e-01
7.868847933080908019e-02 1.362775646627691906e-01
7.947536412411716766e-02 1.362775646627691906e-01
8.026224891742526901e-02 1.362775646627691906e-01
8.104913371073335648e-02 1.362775646627691906e-01
8.183601850404144396e-02 1.362775646627691906e-01
8.262290329734953143e-02 1.362775646627691906e-01
8.340978809065763278e-02 1.362775646627691906e-01
8.419667288396572025e-02 1.362775646627691906e-01
8.498355767727380772e-02 1.362775646627691906e-01
8.577044247058189519e-02 1.362775646627691906e-01
8.655732726388999654e-02 1.362775646627691906e-01
8.734421205719808401e-02 1.362775646627691906e-01
8.813109685050617148e-02 1.362775646627691906e-01
8.891798164381425895e-02 1.362775646627691906e-01
8.970486643712236030e-02 1.362775646627691906e-01
9.049175123043044777e-02 1.362775646627691906e-01
9.127863602373853524e-02 1.362775646627691906e-01
9.206552081704662271e-02 1.362775646627691906e-01
9.285240561035472406e-02 1.362775646627691906e-01
9.363929040366281153e-02 1.362775646627691906e-01
9.442617519697089901e-02 1.362775646627691906e-01
9.521305999027898648e-02 1.362775646627691906e-01
9.599994478358708783e-02 1.362775646627691906e-01
9.678682957689517530e-02 1.362775646627691906e-01
9.757371437020326277e-02 1.362775646627691906e-01
9.836059916351135024e-02 1.362775646627691906e-01
9.914748395681945159e-02 1.362775646627691906e-01
9.993436875012753906e-02 1.362775646627691906e-01
1.007212535434356265e-01 1.362775646627691906e-01
1.015081383367437140e-01 1.362775646627691906e-01
1.022950231300518015e-01 1.362775646627691906e-01
1.030819079233599028e-01 1.362775646627691906e-01
1.038687927166679903e-01 1.362775646627691906e-01
1.046556775099760778e-01 1.362775646627691906e-01
1.054425623032841652e-01 1.362775646627691906e-01
1.062294470965922666e-01 1.362775646627691906e-01
1.070163318899003541e-01 1.362775646627691906e-01
1.078032166832084415e-01 1.362775646627691906e-01
1.085901014765165290e-01 1.362775646627691906e-01
1.093769862698246303e-01 1.362775646627691906e-01
1.101638710631327178e-01 1.362775646627691906e-01
1.109507558564408053e-01 1.362775646627691906e-01
1.117376406497488928e-01 1.362775646627691906e-01
1.125245254430569941e-01 1.362775646627691906e-01
1.133114102363650816e-01 1.362775646627691906e-01
1.140982950296731691e-01 1.362775646627691906e-01
1.148851798229812565e-01 1.362775646627691906e-01
1.156720646162893579e-01 1.362775646627691906e-01
1.164589494095974453e-01 1.362775646627691906e-01
1.172458342029055328e-01 1.362775646627691906e-01
1.180327189962136203e-01 1.362775646627691906e-01
1.188196037895217216e-01 1.362775646627691906e-01
1.196064885828298091e-01 1.362775646627691906e-01
1.203933733761378966e-01 1.362775646627691906e-01
1.211802581694459841e-01 1.362775646627691906e-01
1.219671429627540854e-01 1.362775646627691906e-01
1.227540277560621729e-01 1.362775646627691906e-01
1.235409125493702603e-01 1.362775646627691906e-01
1.243277973426783478e-01 1.362775646627691906e-01
1.251146821359864492e-01 1.362775646627691906e-01
1.259015669292945228e-01 1.362775646627691906e-01
1.266884517226026241e-01 1.362775646627691906e-01
1.274753365159107255e-01 1.362775646627691906e-01
1.282622213092187990e-01 1.362775646627691906e-01
1.290491061025269004e-01 1.362775646627691906e-01
1.298359908958349740e-01 1.362775646627691906e-01
1.306228756891430753e-01 1.362775646627691906e-01
1.314097604824511767e-01 1.362775646627691906e-01
1.321966452757592503e-01 1.362775646627691906e-01
1.329835300690673516e-01 1.362775646627691906e-01
1.337704148623754530e-01 1.362775646627691906e-01
1.345572996556835266e-01 1.362775646627691906e-01
1.353441844489916279e-01 1.362775646627691906e-01
1.361310692422997015e-01 1.362775646627691906e-01
1.369179540356078029e-01 1.362775646627691906e-01
1.377048388289159042e-01 1.362775646627691906e-01
1.384917236222239778e-01 1.362775646627691906e-01
1.392786084155320792e-01 1.362775646627691906e-01
1.400654932088401805e-01 1.362775646627691906e-01
1.408523780021482541e-01 1.362775646627691906e-01
1.416392627954563554e-01 1.362775646627691906e-01
1.424261475887644290e-01 1.362775646627691906e-01
1.432130323820725304e-01 1.362775646627691906e-01
1.439999171753806317e-01 1.362775646627691906e-01
1.447868019686887053e-01 1.362775646627691906e-01
1.455736867619968067e-01 1.362775646627691906e-01
1.463605715553049080e-01 1.362775646627691906e-01
1.471474563486129816e-01 1.362775646627691906e-01
1.479343411419210830e-01 1.362775646627691906e-01
1.487212259352291566e-01 1.362775646627691906e-01
1.495081107285372579e-01 1.362775646627691906e-01
1.502949955218453593e-01 1.362775646627691906e-01
1.510818803151534329e-01 1.362775646627691906e-01
1.518687651084615342e-01 1.362775646627691906e-01
1.526556499017696078e-01 1.362775646627691906e-01
1.534425346950777092e-01 1.362775646627691906e-01
1.542294194883858105e-01 1.362775646627691906e-01
1.550163042816938841e-01 1.362775646627691906e-01
1.558031890750019854e-01 1.362775646627691906e-01
1.565900738683100868e-01 1.362775646627691906e-01
1.573769586616181604e-01 1.362775646627691906e-01
1.581638434549262617e-01 1.362775646627691906e-01
1.589507282482343353e-01 1.362775646627691906e-01
1.597376130415424367e-01 1.362775646627691906e-01
1.605244978348505380e-01 1.362775646627691906e-01
1.613113826281586116e-01 1.362775646627691906e-01
1.620982674214667130e-01 1.362775646627691906e-01
1.628851522147748143e-01 1.362775646627691906e-01
1.636720370080828879e-01 1.362775646627691906e-01
1.644589218013909893e-01 1.362775646627691906e-01
1.652458065946990629e-01 1.362775646627691906e-01
1.660326913880071642e-01 1.362775646627691906e-01
1.668195761813152656e-01 1.362775646627691906e-01
1.676064609746233391e-01 1.362775646627691906e-01
1.683933457679314405e-01 1.362775646627691906e-01
1.691802305612395418e-01 1.362775646627691906e-01
1.699671153545476154e-01 1.362775646627691906e-01
1.707540001478557168e-01 1.362775646627691906e-01
1.715408849411637904e-01 1.362775646627691906e-01
1.723277697344718917e-01 1.362775646627691906e-01
1.731146545277799931e-01 1.362775646627691906e-01
1.739015393210880667e-01 1.362775646627691906e-01
1.746884241143961680e-01 1.362775646627691906e-01
1.754753089077042694e-01 1.362775646627691906e-01
1.762621937010123430e-01 1.362775646627691906e-01
1.770490784943204443e-01 1.362775646627691906e-01
1.778359632876285179e-01 1.362775646627691906e-01
1.786228480809366193e-01 1.362775646627691906e-01
1.794097328742447206e-01 1.362775646627691906e-01
1.801966176675527942e-01 1.362775646627691906e-01
1.809835024608608955e-01 1.362775646627691906e-01
1.817703872541689691e-01 1.362775646627691906e-01
1.825572720474770705e-01 1.362775646627691906e-01
1.833441568407851718e-01 1.362775646627691906e-01
1.841310416340932454e-01 1.362775646627691906e-01
1.849179264274013468e-01 1.362775646627691906e-01
1.857048112207094481e-01 1.362775646627691906e-01
1.864916960140175217e-01 1.362775646627691906e-01
1.872785808073256231e-01 1.362775646627691906e-01
1.880654656006336967e-01 1.362775646627691906e-01
1.888523503939417980e-01 1.362775646627691906e-01
1.896392351872498994e-01 1.362775646627691906e-01
1.904261199805579730e-01 1.362775646627691906e-01
1.912130047738660743e-01 1.362775646627691906e-01
1.919998895671741757e-01 1.362775646627691906e-01
1.927867743604822492e-01 1.362775646627691906e-01
1.935736591537903506e-01 1.362775646627691906e-01
1.943605439470984242e-01 1.362775646627691906e-01
1.951474287404065255e-01 1.362775646627691906e-01
1.959343135337146269e-01 1.362775646627691906e-01
1.967211983270227005e-01 1.362775646627691906e-01
1.975080831203308018e-01 1.362775646627691906e-01
1.982949679136389032e-01 1.362775646627691906e-01
1.990818527069469768e-01 1.362775646627691906e-01
1.998687375002550781e-01 1.362775646627691906e-01
2.006556222935631517e-01 1.362775646627691906e-01
2.014425070868712531e-01 1.362775646627691906e-01
2.022293918801793544e-01 1.362775646627691906e-01
2.030162766734874280e-01 1.362775646627691906e-01
2.038031614667955294e-01 1.362775646627691906e-01
2.045900462601036029e-01 1.362775646627691906e-01
2.053769310534117043e-01 1.362775646627691906e-01
2.061638158467198056e-01 1.362775646627691906e-01
2.069507006400278792e-01 1.362775646627691906e-01
2.077375854333359806e-01 1.362775646627691906e-01
2.085244702266440819e-01 1.362775646627691906e-01
2.093113550199521555e-01 1.362775646627691906e-01
2.100982398132602569e-01 1.362775646627691906e-01
2.108851246065683305e-01 1.362775646627691906e-01
2.116720093998764318e-01 1.362775646627691906e-01
2.124588941931845332e-01 1.362775646627691906e-01
2.132457789864926068e-01 1.362775646627691906e-01
2.140326637798007081e-01 1.362775646627691906e-01
2.148195485731088095e-01 1.362775646627691906e-01
2.156064333664168831e-01 1.362775646627691906e-01
2.163933181597249844e-01 1.362775646627691906e-01
2.171802029530330580e-01 1.362775646627691906e-01
2.179670877463411593e-01 1.362775646627691906e-01
2.187539725396492607e-01 1.362775646627691906e-01
2.195408573329573343e-01 1.362775646627691906e-01
2.203277421262654356e-01 1.362775646627691906e-01
2.211146269195735370e-01 1.362775646627691906e-01
2.219015117128816106e-01 1.362775646627691906e-01
2.226883965061897119e-01 1.362775646627691906e-01
2.234752812994977855e-01 1.362775646627691906e-01
2.242621660928058869e-01 1.362775646627691906e-01
2.250490508861139882e-01 1.362775646627691906e-01
2.258359356794220618e-01 1.362775646627691906e-01
2.266228204727301632e-01 1.362775646627691906e-01
2.274097052660382368e-01 1.362775646627691906e-01
2.281965900593463381e-01 1.362775646627691906e-01
2.289834748526544395e-01 1.362775646627691906e-01
2.297703596459625131e-01 1.362775646627691906e-01
2.305572444392706144e-01 1.362775646627691906e-01
2.313441292325787157e-01 1.362775646627691906e-01
2.321310140258867893e-01 1.362775646627691906e-01
2.329178988191948907e-01 1.362775646627691906e-01
2.337047836125029643e-01 1.362775646627691906e-01
2.344916684058110656e-01 1.362775646627691906e-01
2.352785531991191670e-01 1.362775646627691906e-01
2.360654379924272406e-01 1.362775646627691906e-01
2.368523227857353419e-01 1.362775646627691906e-01
2.376392075790434433e-01 1.362775646627691906e-01
2.384260923723515169e-01 1.362775646627691906e-01
2.392129771656596182e-01 1.362775646627691906e-01
2.399998619589676918e-01 1.362775646627691906e-01
2.407867467522757932e-01 1.362775646627691906e-01
2.415736315455838945e-01 1.362775646627691906e-01
2.423605163388919681e-01 1.362775646627691906e-01
2.431474011322000695e-01 1.362775646627691906e-01
2.439342859255081708e-01 1.362775646627691906e-01
2.447211707188162444e-01 1.362775646627691906e-01
2.455080555121243457e-01 1.362775646627691906e-01
2.462949403054324193e-01 1.362775646627691906e-01
2.470818250987405207e-01 1.362775646627691906e-01
2.478687098920486220e-01 1.362775646627691906e-01
2.486555946853566956e-01 1.362775646627691906e-01
2.494424794786647970e-01 1.362775646627691906e-01
2.502293642719728983e-01 1.362775646627696347e-01
2.510162490652809719e-01 1.362775646627696347e-01
2.518031338585890455e-01 1.362775646627707449e-01
2.525900186518971746e-01 1.362775646627720771e-01
2.533769034452052482e-01 1.362775646627776283e-01
2.541637882385133218e-01 1.362775646627845116e-01
2.549506730318214509e-01 1.362775646628120452e-01
2.557375578251295245e-01 1.362775646628471282e-01
2.565244426184375981e-01 1.362775646629712512e-01
2.573113274117457272e-01 1.362775646631315674e-01
2.580982122050538008e-01 1.362775646636458227e-01
2.588850969983618744e-01 1.362775646643186178e-01
2.596719817916699480e-01 1.362775646662730544e-01
2.604588665849780771e-01 1.362775646688658693e-01
2.612457513782861507e-01 1.362775646756955172e-01
2.620326361715942243e-01 1.362775646849025968e-01
2.628195209649023534e-01 1.362775647068992235e-01
2.636064057582104270e-01 1.362775647371088361e-01
2.643932905515185006e-01 1.362775648027032549e-01
2.651801753448266297e-01 1.362775648946425999e-01
2.659670601381347033e-01 1.362775650769094682e-01
2.667539449314427769e-01 1.362775653378152096e-01
2.675408297247509060e-01 1.362775658138706270e-01
2.683277145180589796e-01 1.362775665090334432e-01
2.691145993113670531e-01 1.362775676905221278e-01
2.699014841046751823e-01 1.362775694444040564e-01
2.706883688979832558e-01 1.362775722639693043e-01
2.714752536912913294e-01 1.362775764941164258e-01
2.722621384845994030e-01 1.362775830343423422e-01
2.730490232779075321e-01 1.362775928789659030e-01
2.738359080712156057e-01 1.362776077331548930e-01
2.746227928645236793e-01 1.362776300092030102e-01
2.754096776578318084e-01 1.362776631375959280e-01
2.761965624511398820e-01 1.362777123825837933e-01
2.769834472444479556e-01 1.362777848913754308e-01
2.777703320377560847e-01 1.362778914589304335e-01
2.785572168310641583e-01 1.362780469104423187e-01
2.793441016243722319e-01 1.362782726770073172e-01
2.801309864176803610e-01 1.362785986442220931e-01
2.809178712109884346e-01 1.362790666006237217e-01
2.817047560042965082e-01 1.362797347959341376e-01
2.824916407976045818e-01 1.362806833203944468e-01
2.832785255909127109e-01 1.362820224073755249e-01
2.840654103842207845e-01 1.362839021627189062e-01
2.848522951775288581e-01 1.362865259772849669e-01
2.856391799708369872e-01 1.362901679144725708e-01
2.864260647641450608e-01 1.362951942035117714e-01
2.872129495574531344e-01 1.363020918551918204e-01
2.879998343507612635e-01 1.363115035856594659e-01
2.887867191440693371e-01 1.363242721611288566e-01
2.895736039373774107e-01 1.363414955241852855e-01
2.903604887306855398e-01 1.363645938674344915e-01
2.911473735239936134e-01 1.363953918773059826e-01
2.919342583173016870e-01 1.364362182499510023e-01
2.927211431106098161e-01 1.364900221996645513e-01
2.935080279039178897e-01 1.365605152521769394e-01
2.942949126972259632e-01 1.366523297765407374e-01
2.950817974905340368e-01 1.367712108403140725e-01
2.958686822838421659e-01 1.369242231258904763e-01
2.966555670771502395e-01 1.371199946583971929e-01
2.974424518704583131e-01 1.373689743430659416e-01
2.982293366637664422e-01 1.376837205892988969e-01
2.990162214570745158e-01 1.380791991684038322e-01
2.998031062503825894e-01 1.385730973636347674e-01
3.005899910436907185e-01 1.391861394744999814e-01
3.013768758369987921e-01 1.399423868905820267e-01
3.021637606303068657e-01 1.408695210933219588e-01
3.029506454236149948e-01 1.419990826644879078e-01
3.037375302169230684e-01 1.433666385592708981e-01
3.045244150102311420e-01 1.450118881498783097e-01
3.053112998035392156e-01 1.469786317079329052e-01
3.060981845968473447e-01 1.493146046087641121e-01
3.068850693901554183e-01 1.520712035222557823e-01
3.076719541834634919e-01 1.553029460173267484e-01
3.084588389767716210e-01 1.590667646990102657e-01
3.092457237700796946e-01 1.634211128965481485e-01
3.100326085633877682e-01 1.684247420431506104e-01
3.108194933566958973e-01 1.741353135883552117e-01
3.116063781500039709e-01 1.806077837210167125e-01
3.123932629433120445e-01 1.878924203869620779e-01
3.131801477366201736e-01 1.960329595093810440e-01
3.139670325299282472e-01 2.050641387366098911e-01
3.147539173232363208e-01 2.150096750627872311e-01
3.155408021165444499e-01 2.258796961434392792e-01
3.163276869098525235e-01 2.376686128574663215e-01
3.171145717031605971e-01 2.503530391455317528e-01
3.179014564964686707e-01 2.638897433660494229e-01
3.186883412897767998e-01 2.782140303917075563e-01
3.194752260830848734e-01 2.932387015286623821e-01
3.202621108763929469e-01 3.088531510120007262e-01
3.210489956697010761e-01 3.249234710644057778e-01
3.218358804630091496e-01 3.412926199900252477e-01
3.226227652563172232e-01 3.577815778198123464e-01
3.234096500496253523e-01 3.741904809451312985e-01
3.241965348429334259e-01 3.903027824409819324e-01
3.249834196362414995e-01 4.058857563476025998e-01
3.257703044295496286e-01 4.206945739467615741e-01
3.265571892228577022e-01 4.344776827655205675e-01
3.273440740161657758e-01 4.469787396557134418e-01
3.281309588094738494e-01 4.579428302670489614e-01
3.289178436027819785e-01 4.671205032999348195e-01
3.297047283960900521e-01 4.742706281012267766e-01
3.304916131893981257e-01 4.791682110290758079e-01
3.312784979827062548e-01 4.816047316406617540e-01
3.320653827760143284e-01 4.813978080895846556e-01
3.328522675693224020e-01 4.783896002341212483e-01
3.336391523626305311e-01 4.724562228938131714e-01
3.344260371559386047e-01 4.635048882537182724e-01
3.352129219492466783e-01 4.514811339007174240e-01
3.359998067425548074e-01 4.363698313867223622e-01
3.367866915358628810e-01 4.181980438244246034e-01
3.375735763291709546e-01 3.970415815481345145e-01
3.383604611224790837e-01 3.730213040486920484e-01
3.391473459157871573e-01 3.463101799159093996e-01
3.399342307090952309e-01 3.171312697121577706e-01
3.407211155024033045e-01 2.857599111926478752e-01
3.415080002957114336e-01 2.525161550813852518e-01
3.422948850890195072e-01 2.177788849560526874e-01
3.430817698823275808e-01 1.819668226409665301e-01
3.438686546756357099e-01 1.455402091457520530e-01
3.446555394689437835e-01 1.090026536978885296e-01
3.454424242622518570e-01 7.287961772764983692e-02
3.462293090555599862e-01 3.772379387186908239e-02
3.470161938488680597e-01 4.088210955114357503e-03
3.478030786421761333e-01 -2.747595123058999000e-02
3.485899634354842624e-01 -5.643499465545542826e-02
3.493768482287923360e-01 -8.229052100189993002e-02
3.501637330221004096e-01 -1.045930472678274770e-01
3.509506178154085387e-01 -1.229603279982021125e-01
3.517375026087166123e-01 -1.370842471336213286e-01
3.525243874020246859e-01 -1.467577130291405352e-01
3.533112721953327595e-01 -1.518699518259785108e-01
3.540981569886408886e-01 -1.524273510911057228e-01
3.548850417819489622e-01 -1.485487531889507773e-01
3.556719265752570358e-01 -1.404676405016794805e-01
3.564588113685651649e-01 -1.285410444041803490e-01
3.572456961618732385e-01 -1.132095389235638905e-01
3.580325809551813121e-01 -9.502228672544232868e-02
3.588194657484894412e-01 -7.459795728970153306e-02
3.596063505417975148e-01 -5.260816966453674137e-02
3.603932353351055884e-01 -2.977362630749713635e-02
3.611801201284137175e-01 -6.809146390764131418e-03
3.619670049217217911e-01 1.557171161748827082e-02
3.627538897150298647e-01 3.668942825728516155e-02
3.635407745083379383e-01 5.592735117515257315e-02
3.643276593016460674e-01 7.274337764791960481e-02
3.651145440949541410e-01 8.669046203457120292e-02
3.659014288882622146e-01 9.742291929628521530e-02
3.666883136815703437e-01 1.047195379032341833e-01
3.674751984748784173e-01 1.084630723827322285e-01
3.682620832681864909e-01 1.086600783956179761e-01
3.690489680614946200e-01 1.054207414721357594e-01
3.698358528548026936e-01 9.896047390367912477e-02
3.706227376481107672e-01 8.957377614637085372e-02
3.714096224414188963e-01 7.763154731918020524e-02
3.721965072347269698e-01 6.355141663628360860e-02
3.729833920280350434e-01 4.779160798089510109e-02
3.737702768213431725e-01 3.082227990083130642e-02
3.745571616146512461e-01 1.311291856843865844e-02
3.753440464079593197e-01 -4.886488732584015615e-03
3.761309312012673933e-01 -2.276016182060447424e-02
3.769178159945755224e-01 -4.013064591581494422e-02
3.777047007878835960e-01 -5.667700780140449979e-02
3.784915855811916696e-01 -7.212840623312233301e-02
3.792784703744997987e-01 -8.628426320339510625e-02
3.800653551678078723e-01 -9.899449190014486533e-02
3.808522399611159459e-01 -1.101787644663683174e-01
3.816391247544240750e-01 -1.197939858367469412e-01
3.824260095477321486e-01 -1.278537506028266657e-01
3.832128943410402222e-01 -1.344126892715937771e-01
3.839997791343483513e-01 -1.395499320312446612e-01
3.847866639276564249e-01 -1.433752021538875487e-01
3.855735487209644985e-01 -1.460020890705872043e-01
3.863604335142725721e-01 -1.475641013357242848e-01
3.871473183075807012e-01 -1.481868891153673706e-01
3.879342031008887748e-01 -1.479990442182685939e-01
3.887210878941968484e-01 -1.471312176030588059e-01
3.895079726875049775e-01 -1.456824165577839114e-01
3.902948574808130511e-01 -1.437563129753168800e-01
3.910817422741211247e-01 -1.414302300347769492e-01
3.918686270674292538e-01 -1.387693041098781999e-01
3.926555118607373274e-01 -1.358300987870850740e-01
3.934423966540454010e-01 -1.326521161252951497e-01
3.942292814473535301e-01 -1.292613266270603578e-01
3.950161662406616037e-01 -1.256790782135723816e-01
3.958030510339696773e-01 -1.219213398022577222e-01
3.965899358272778064e-01 -1.179835728586899890e-01
3.973768206205858800e-01 -1.138679626031486869e-01
3.981637054138939535e-01 -1.095854351370310065e-01
3.989505902072020271e-01 -1.051188448858365598e-01
3.997374750005101562e-01 -1.004784455754920147e-01
4.005243597938182298e-01 -9.566070723477682058e-02
4.013112445871263034e-01 -9.066478939435274054e-02
4.020981293804344325e-01 -8.548867492780787281e-02
4.028850141737425061e-01 -8.014127281012772830e-02
4.036718989670505797e-01 -7.462678538800349148e-02
4.044587837603587088e-01 -6.895328116708243638e-02
4.052456685536667824e-01 -6.312412202471751055e-02
4.060325533469748560e-01 -5.715141071937956951e-02
4.068194381402829851e-01 -5.103346631239202846e-02
4.076063229335910587e-01 -4.477096117922552132e-02
4.083932077268991323e-01 -3.837633426608622056e-02
4.091800925202072059e-01 -3.183781900223847661e-02
4.099669773135153350e-01 -2.515877726503545908e-02
4.107538621068234086e-01 -1.833214911203573383e-02
4.115407469001314822e-01 -1.135154697626872267e-02
4.123276316934396113e-01 -4.205204286998776020e-03
4.131145164867476849e-01 3.115619836891792005e-03
4.139014012800557585e-01 1.061798533784430454e-02
4.146882860733638876e-01 1.831702066394713668e-02
4.154751708666719612e-01 2.621474294161241225e-02
4.162620556599800348e-01 3.431854830101643827e-02
4.170489404532881639e-01 4.262978149310048259e-02
4.178358252465962375e-01 5.114709776692349941e-02
4.186227100399043111e-01 5.987285043663215234e-02
4.194095948332124402e-01 6.879123867866798747e-02
4.201964796265205138e-01 7.789923680341281909e-02
4.209833644198285874e-01 8.718642299107237648e-02
4.217702492131366609e-01 9.662758316149933080e-02
4.225571340064447901e-01 1.062116231194287774e-01
4.233440187997528636e-01 1.159234144167722302e-01
4.241309035930609372e-01 1.257458114790293013e-01
4.249177883863690663e-01 1.356626772949056647e-01
4.257046731796771399e-01 1.456693052361071050e-01
4.264915579729852135e-01 1.557542649196335116e-01
4.272784427662933426e-01 1.659128497171904471e-01
4.280653275596014162e-01 1.761534643221607244e-01
4.288522123529094898e-01 1.864683764166321644e-01
4.296390971462176189e-01 1.968723782609580475e-01
4.304259819395256925e-01 2.073849687437858691e-01
4.312128667328337661e-01 2.180206039377332594e-01
4.319997515261418397e-01 2.287876885361830315e-01
4.327866363194499688e-01 2.397117728070179421e-01
4.335735211127580424e-01 2.508022700068262001e-01
4.343604059060661160e-01 2.620672486412551905e-01
4.351472906993742451e-01 2.735188114687756578e-01
4.359341754926823187e-01 2.851616651176815953e-01
4.367210602859903923e-01 2.969682421936787886e-01
4.375079450792985214e-01 3.089304741911196306e-01
4.382948298726065950e-01 3.210130613977979497e-01
4.390817146659146686e-01 3.331622137760656965e-01
4.398685994592227977e-01 3.453392697363633079e-01
4.406554842525308713e-01 3.574615270958070301e-01
4.414423690458389449e-01 3.694388875413363582e-01
4.422292538391470740e-01 3.811970535834503515e-01
4.430161386324551476e-01 3.926133166987642031e-01
4.438030234257632212e-01 4.035858120034823138e-01
4.445899082190712948e-01 4.140039337326908431e-01
4.453767930123794239e-01 4.237291725394460862e-01
4.461636778056874975e-01 4.326499140956290290e-01
4.469505625989955711e-01 4.406427775023840088e-01
4.477374473923037002e-01 4.475914418032975739e-01
4.485243321856117737e-01 4.533953868655149488e-01
4.493112169789198473e-01 4.579540925561815801e-01
4.500981017722279764e-01 4.611862014433547596e-01
4.508849865655360500e-01 4.630211141026217003e-01
4.516718713588441236e-01 4.634043681208634968e-01
4.524587561521522527e-01 4.623122622627418021e-01
4.532456409454603263e-01 4.597236167009326469e-01
4.540325257387683999e-01 4.556375909660976831e-01
4.548194105320764735e-01 4.500832652973403292e-01
4.556062953253846026e-01 4.431085464469410873e-01
4.563931801186926762e-01 4.347623497303858553e-01
4.571800649120007498e-01 4.251156107598228484e-01
4.579669497053088789e-01 4.142653196968864027e-01
4.587538344986169525e-01 4.023009024791659449e-01
4.595407192919250261e-01 3.893363267489284851e-01
4.603276040852331552e-01 3.754916115276756283e-01
4.611144888785412288e-01 3.608864396491746618e-01
4.619013736718493024e-01 3.456438558245449322e-01
4.626882584651574315e-01 3.299022013068626524e-01
4.634751432584655051e-01 3.137939340638356001e-01
4.642620280517735787e-01 2.974452925900692435e-01
4.650489128450817078e-01 2.809962990773160474e-01
4.658357976383897814e-01 2.645719313161734032e-01
4.666226824316978550e-01 2.483117072167908557e-01
4.674095672250059286e-01 2.323358138945381679e-01
4.681964520183140577e-01 2.167688929522779695e-01
4.689833368116221313e-01 2.017392000110269645e-01
4.697702216049302049e-01 1.873601143845151640e-01