0.000000000000000000e+00 -8.635887466228497900e-02
7.868847933080908323e-04 1.668400649125909574e-01
1.573769586616181665e-03 1.668400649125909574e-01
2.360654379924272388e-03 1.668400649125909574e-01
3.147539173232363329e-03 1.668400649125909574e-01
3.934423966540453836e-03 1.668400649125909574e-01
4.721308759848544777e-03 1.668400649125909574e-01
5.508193553156635718e-03 1.668400649125909574e-01
6.295078346464726658e-03 1.668400649125909574e-01
7.081963139772817599e-03 1.668400649125909574e-01
7.868847933080907672e-03 1.668400649125909574e-01
8.655732726388998613e-03 1.668400649125909574e-01
9.442617519697089554e-03 1.668400649125909574e-01
1.022950231300518049e-02 1.668400649125909574e-01
1.101638710631327144e-02 1.668400649125909574e-01
1.180327189962136238e-02 1.668400649125909574e-01
1.259015669292945332e-02 1.668400649125909574e-01
1.337704148623754426e-02 1.668400649125909574e-01
1.416392627954563520e-02 1.668400649125909574e-01
1.495081107285372614e-02 1.668400649125909574e-01
1.573769586616181534e-02 1.668400649125909574e-01
1.652458065946990629e-02 1.668400649125909574e-01
1.731146545277799723e-02 1.668400649125909574e-01
1.809835024608608817e-02 1.668400649125909574e-01
1.888523503939417911e-02 1.668400649125909574e-01
1.967211983270227005e-02 1.668400649125909574e-01
2.045900462601036099e-02 1.668400649125909574e-01
2.124588941931845193e-02 1.668400649125909574e-01
2.203277421262654287e-02 1.668400649125909574e-01
2.281965900593463381e-02 1.668400649125909574e-01
2.360654379924272475e-02 1.668400649125909574e-01
2.439342859255081569e-02 1.668400649125909574e-01
2.518031338585890663e-02 1.668400649125909574e-01
2.596719817916699757e-02 1.668400649125909574e-01
2.675408297247508851e-02 1.668400649125909574e-01
2.754096776578317946e-02 1.668400649125909574e-01
2.832785255909127040e-02 1.668400649125909574e-01
2.911473735239936134e-02 1.668400649125909574e-01
2.990162214570745228e-02 1.668400649125909574e-01
3.068850693901554322e-02 1.668400649125909574e-01
3.147539173232363069e-02 1.668400649125909574e-01
3.226227652563172510e-02 1.668400649125909574e-01
3.304916131893981257e-02 1.668400649125909574e-01
3.383604611224790698e-02 1.668400649125909574e-01
3.462293090555599445e-02 1.668400649125909574e-01
3.540981569886408886e-02 1.668400649125909574e-01
3.619670049217217633e-02 1.668400649125909574e-01
3.698358528548027074e-02 1.668400649125909574e-01
3.777047007878835821e-02 1.668400649125909574e-01
3.855735487209645262e-02 1.668400649125909574e-01
3.934423966540454010e-02 1.668400649125909574e-01
4.013112445871263451e-02 1.668400649125909574e-01
4.091800925202072198e-02 1.668400649125909574e-01
4.170489404532881639e-02 1.668400649125909574e-01
4.249177883863690386e-02 1.668400649125909574e-01
4.327866363194499827e-02 1.668400649125909574e-01
4.406554842525308574e-02 1.668400649125909574e-01
4.485243321856118015e-02 1.668400649125909574e-01
4.563931801186926762e-02 1.668400649125909574e-01
4.642620280517736203e-02 1.668400649125909574e-01
4.721308759848544950e-02 1.668400649125909574e-01
4.799997239179354391e-02 1.668400649125909574e-01
4.878685718510163138e-02 1.668400649125909574e-01
4.957374197840972579e-02 1.668400649125909574e-01
5.036062677171781327e-02 1.668400649125909574e-01
5.114751156502590074e-02 1.668400649125909574e-01
5.193439635833399515e-02 1.668400649125909574e-01
5.272128115164208262e-02 1.668400649125909574e-01
5.350816594495017703e-02 1.668400649125909574e-01
5.429505073825826450e-02 1.668400649125909574e-01
5.508193553156635891e-02 1.668400649125909574e-01
5.586882032487444638e-02 1.668400649125909574e-01
5.665570511818254079e-02 1.668400649125909574e-01
5.744258991149062826e-02 1.668400649125909574e-01
5.822947470479872267e-02 1.668400649125909574e-01
5.901635949810681014e-02 1.668400649125909574e-01
5.980324429141490455e-02 1.668400649125909574e-01
6.059012908472299203e-02 1.668400649125909574e-01
6.137701387803108644e-02 1.668400649125909574e-01
6.216389867133917391e-02 1.668400649125909574e-01
6.295078346464726138e-02 1.668400649125909574e-01
6.373766825795536273e-02 1.668400649125909574e-01
6.452455305126345020e-02 1.668400649125909574e-01
6.531143784457153767e-02 1.668400649125909574e-01
6.609832263787962514e-02 1.668400649125909574e-01
6.688520743118772649e-02 1.668400649125909574e-01
6.767209222449581396e-02 1.668400649125909574e-01
6.845897701780390143e-02 1.668400649125909574e-01
6.924586181111198890e-02 1.668400649125909574e-01
7.003274660442009025e-02 1.668400649125909574e-01
7.081963139772817772e-02 1.668400649125909574e-01
7.160651619103626520e-02 1.668400649125909574e-01
7.239340098434435267e-02 1.668400649125909574e-01
7.318028577765245402e-02 1.668400649125909574e-01
7.396717057096054149e-02 1.668400649125909574e-01
7.475405536426862896e-02 1.668400649125909574e-01
7.554094015757671643e-02 1.668400649125909574e-01
7.632782495088480390e-02 1.668400649125909574e-01
7.711470974419290525e-02 1.668400649125909574e-01
7.790159453750099272e-02 1.668400649125909574e-01
7.868847933080908019e-02 1.668400649125909574e-01
7.947536412411716766e-02 1.668400649125909574e-01
8.026224891742526901e-02 1.668400649125909574e-01
8.104913371073335648e-02 1.668400649125909574e-01
8.183601850404144396e-02 1.668400649125909574e-01
8.262290329734953143e-02 1.668400649125909574e-01
8.340978809065763278e-02 1.668400649125909574e-01
8.419667288396572025e-02 1.668400649125909574e-01
8.498355767727380772e-02 1.668400649125909574e-01
8.577044247058189519e-02 1.668400649125909574e-01
8.655732726388999654e-02 1.668400649125909574e-01
8.734421205719808401e-02 1.668400649125909574e-01
8.813109685050617148e-02 1.668400649125909574e-01
8.891798164381425895e-02 1.668400649125909574e-01
8.970486643712236030e-02 1.668400649125909574e-01
9.049175123043044777e-02 1.668400649125909574e-01
9.127863602373853524e-02 1.668400649125909574e-01
9.206552081704662271e-02 1.668400649125909574e-01
9.285240561035472406e-02 1.668400649125909574e-01
9.363929040366281153e-02 1.668400649125909574e-01
9.442617519697089901e-02 1.668400649125909574e-01
9.521305999027898648e-02 1.668400649125909574e-01
9.599994478358708783e-02 1.668400649125909574e-01
9.678682957689517530e-02 1.668400649125909574e-01
9.757371437020326277e-02 1.668400649125909574e-01
9.836059916351135024e-02 1.668400649125909574e-01
9.914748395681945159e-02 1.668400649125909574e-01
9.993436875012753906e-02 1.668400649125909574e-01
1.007212535434356265e-01 1.668400649125909574e-01
1.015081383367437140e-01 1.668400649125909574e-01
1.022950231300518015e-01 1.668400649125909574e-01
1.030819079233599028e-01 1.668400649125909574e-01
1.038687927166679903e-01 1.668400649125909574e-01
1.046556775099760778e-01 1.668400649125909574e-01
1.054425623032841652e-01 1.668400649125909574e-01
1.062294470965922666e-01 1.668400649125909574e-01
1.070163318899003541e-01 1.668400649125909574e-01
1.078032166832084415e-01 1.668400649125909574e-01
1.085901014765165290e-01 1.668400649125909574e-01
1.093769862698246303e-01 1.668400649125909574e-01
1.101638710631327178e-01 1.668400649125909574e-01
1.109507558564408053e-01 1.668400649125909574e-01
1.117376406497488928e-01 1.668400649125909574e-01
1.125245254430569941e-01 1.668400649125909574e-01
1.133114102363650816e-01 1.668400649125909574e-01
1.140982950296731691e-01 1.668400649125909574e-01
1.148851798229812565e-01 1.668400649125909574e-01
1.156720646162893579e-01 1.668400649125909574e-01
1.164589494095974453e-01 1.668400649125909574e-01
1.172458342029055328e-01 1.668400649125909574e-01
1.180327189962136203e-01 1.668400649125909574e-01
1.188196037895217216e-01 1.668400649125909574e-01
1.196064885828298091e-01 1.668400649125909574e-01
1.203933733761378966e-01 1.668400649125909574e-01
1.211802581694459841e-01 1.668400649125909574e-01
1.219671429627540854e-01 1.668400649125909574e-01
1.227540277560621729e-01 1.668400649125909574e-01
1.235409125493702603e-01 1.668400649125909574e-01
1.243277973426783478e-01 1.668400649125909574e-01
1.251146821359864492e-01 1.668400649125909574e-01
1.259015669292945228e-01 1.668400649125909574e-01
1.266884517226026241e-01 1.668400649125909574e-01
1.274753365159107255e-01 1.668400649125909574e-01
1.282622213092187990e-01 1.668400649125909574e-01
1.290491061025269004e-01 1.668400649125909574e-01
1.298359908958349740e-01 1.668400649125909574e-01
1.306228756891430753e-01 1.668400649125909574e-01
1.314097604824511767e-01 1.668400649125909574e-01
1.321966452757592503e-01 1.668400649125909574e-01
1.329835300690673516e-01 1.668400649125909574e-01
1.337704148623754530e-01 1.668400649125909574e-01
1.345572996556835266e-01 1.668400649125909574e-01
1.353441844489916279e-01 1.668400649125909574e-01
1.361310692422997015e-01 1.668400649125909574e-01
1.369179540356078029e-01 1.668400649125909574e-01
1.377048388289159042e-01 1.668400649125909574e-01
1.384917236222239778e-01 1.668400649125909574e-01
1.392786084155320792e-01 1.668400649125909574e-01
1.400654932088401805e-01 1.668400649125909574e-01
1.408523780021482541e-01 1.668400649125909574e-01
1.416392627954563554e-01 1.668400649125909574e-01
1.424261475887644290e-01 1.668400649125909574e-01
1.432130323820725304e-01 1.668400649125909574e-01
1.439999171753806317e-01 1.668400649125909574e-01
1.447868019686887053e-01 1.668400649125909574e-01
1.455736867619968067e-01 1.668400649125909574e-01
1.463605715553049080e-01 1.668400649125909574e-01
1.471474563486129816e-01 1.668400649125909574e-01
1.479343411419210830e-01 1.668400649125909574e-01
1.487212259352291566e-01 1.668400649125909574e-01
1.495081107285372579e-01 1.668400649125909574e-01
1.502949955218453593e-01 1.668400649125909574e-01
1.510818803151534329e-01 1.668400649125909574e-01
1.518687651084615342e-01 1.668400649125909574e-01
1.526556499017696078e-01 1.668400649125909574e-01
1.534425346950777092e-01 1.668400649125909574e-01
1.542294194883858105e-01 1.668400649125909574e-01
1.550163042816938841e-01 1.668400649125909574e-01
1.558031890750019854e-01 1.668400649125909574e-01
1.565900738683100868e-01 1.668400649125909574e-01
1.573769586616181604e-01 1.668400649125909574e-01
1.581638434549262617e-01 1.668400649125909574e-01
1.589507282482343353e-01 1.668400649125909574e-01
1.597376130415424367e-01 1.668400649125909574e-01
1.605244978348505380e-01 1.668400649125909574e-01
1.613113826281586116e-01 1.668400649125909574e-01
1.620982674214667130e-01 1.668400649125909574e-01
1.628851522147748143e-01 1.668400649125909574e-01
1.636720370080828879e-01 1.668400649125909574e-01
1.644589218013909893e-01 1.668400649125909574e-01
1.652458065946990629e-01 1.668400649125909574e-01
1.660326913880071642e-01 1.668400649125909574e-01
1.668195761813152656e-01 1.668400649125909574e-01
1.676064609746233391e-01 1.668400649125909574e-01
1.683933457679314405e-01 1.668400649125909574e-01
1.691802305612395418e-01 1.668400649125909574e-01
1.699671153545476154e-01 1.668400649125909574e-01
1.707540001478557168e-01 1.668400649125909574e-01
1.715408849411637904e-01 1.668400649125909574e-01
1.723277697344718917e-01 1.668400649125909574e-01
1.731146545277799931e-01 1.668400649125909574e-01
1.739015393210880667e-01 1.668400649125909574e-01
1.746884241143961680e-01 1.668400649125909574e-01
1.754753089077042694e-01 1.668400649125909574e-01
1.762621937010123430e-01 1.668400649125909574e-01
1.770490784943204443e-01 1.668400649125909574e-01
1.778359632876285179e-01 1.668400649125909574e-01
1.786228480809366193e-01 1.668400649125909574e-01
1.794097328742447206e-01 1.668400649125909574e-01
1.801966176675527942e-01 1.668400649125909574e-01
1.809835024608608955e-01 1.668400649125909574e-01
1.817703872541689691e-01 1.668400649125909574e-01
1.825572720474770705e-01 1.668400649125909574e-01
1.833441568407851718e-01 1.668400649125909574e-01
1.841310416340932454e-01 1.668400649125909574e-01
1.849179264274013468e-01 1.668400649125909574e-01
1.857048112207094481e-01 1.668400649125909574e-01
1.864916960140175217e-01 1.668400649125909574e-01
1.872785808073256231e-01 1.668400649125909574e-01
1.880654656006336967e-01 1.668400649125909574e-01
1.888523503939417980e-01 1.668400649125909574e-01
1.896392351872498994e-01 1.668400649125909574e-01
1.904261199805579730e-01 1.668400649125909574e-01
1.912130047738660743e-01 1.668400649125909574e-01
1.919998895671741757e-01 1.668400649125909574e-01
1.927867743604822492e-01 1.668400649125909574e-01
1.935736591537903506e-01 1.668400649125909574e-01
1.943605439470984242e-01 1.668400649125909574e-01
1.951474287404065255e-01 1.668400649125909574e-01
1.959343135337146269e-01 1.668400649125909574e-01
1.967211983270227005e-01 1.668400649125909574e-01
1.975080831203308018e-01 1.668400649125909574e-01
1.982949679136389032e-01 1.668400649125909574e-01
1.990818527069469768e-01 1.668400649125909574e-01
1.998687375002550781e-01 1.668400649125909574e-01
2.006556222935631517e-01 1.668400649125909574e-01
2.014425070868712531e-01 1.668400649125909574e-01
2.022293918801793544e-01 1.668400649125909574e-01
2.030162766734874280e-01 1.668400649125909574e-01
2.038031614667955294e-01 1.668400649125909574e-01
2.045900462601036029e-01 1.668400649125909574e-01
2.053769310534117043e-01 1.668400649125909574e-01
2.061638158467198056e-01 1.668400649125909574e-01
2.069507006400278792e-01 1.668400649125909574e-01
2.077375854333359806e-01 1.668400649125909574e-01
2.085244702266440819e-01 1.668400649125909574e-01
2.093113550199521555e-01 1.668400649125909574e-01
2.100982398132602569e-01 1.668400649125909574e-01
2.108851246065683305e-01 1.668400649125909574e-01
2.116720093998764318e-01 1.668400649125909574e-01
2.124588941931845332e-01 1.668400649125909574e-01
2.132457789864926068e-01 1.668400649125909574e-01
2.140326637798007081e-01 1.668400649125909574e-01
2.148195485731088095e-01 1.668400649125909574e-01
2.156064333664168831e-01 1.668400649125909574e-01
2.163933181597249844e-01 1.668400649125909574e-01
2.171802029530330580e-01 1.668400649125909574e-01
2.179670877463411593e-01 1.668400649125909574e-01
2.187539725396492607e-01 1.668400649125909574e-01
2.195408573329573343e-01 1.668400649125909574e-01
2.203277421262654356e-01 1.668400649125909574e-01
2.211146269195735370e-01 1.668400649125909574e-01
2.219015117128816106e-01 1.668400649125909574e-01
2.226883965061897119e-01 1.668400649125909574e-01
2.234752812994977855e-01 1.668400649125909574e-01
2.242621660928058869e-01 1.668400649125909574e-01
2.250490508861139882e-01 1.668400649125909574e-01
2.258359356794220618e-01 1.668400649125909574e-01
2.266228204727301632e-01 1.668400649125909574e-01
2.274097052660382368e-01 1.668400649125909574e-01
2.281965900593463381e-01 1.668400649125909574e-01
2.289834748526544395e-01 1.668400649125909574e-01
2.297703596459625131e-01 1.668400649125909574e-01
2.305572444392706144e-01 1.668400649125909574e-01
2.313441292325787157e-01 1.668400649125909574e-01
2.321310140258867893e-01 1.668400649125909574e-01
2.329178988191948907e-01 1.668400649125909574e-01
2.337047836125029643e-01 1.668400649125909574e-01
2.344916684058110656e-01 1.668400649125909574e-01
2.352785531991191670e-01 1.668400649125909574e-01
2.360654379924272406e-01 1.668400649125909574e-01
2.368523227857353419e-01 1.668400649125909574e-01
2.376392075790434433e-01 1.668400649125909574e-01
2.384260923723515169e-01 1.668400649125909574e-01
2.392129771656596182e-01 1.668400649125909574e-01
2.399998619589676918e-01 1.668400649125909574e-01
2.407867467522757932e-01 1.668400649125909574e-01
2.415736315455838945e-01 1.668400649125909574e-01
2.423605163388919681e-01 1.668400649125909574e-01
2.431474011322000695e-01 1.668400649125909574e-01
2.439342859255081708e-01 1.668400649125909574e-01
2.447211707188162444e-01 1.668400649125909574e-01
2.455080555121243457e-01 1.668400649125909574e-01
2.462949403054324193e-01 1.668400649125909574e-01
2.470818250987405207e-01 1.668400649125909574e-01
2.478687098920486220e-01 1.668400649125909574e-01
2.486555946853566956e-01 1.668400649125909574e-01
2.494424794786647970e-01 1.668400649125909574e-01
2.502293642719728983e-01 1.668400649125909574e-01
2.510162490652809719e-01 1.668400649125909574e-01
2.518031338585890455e-01 1.668400649125909574e-01
2.525900186518971746e-01 1.668400649125909574e-01
2.533769034452052482e-01 1.668400649125909574e-01
2.541637882385133218e-01 1.668400649125909574e-01
2.549506730318214509e-01 1.668400649125909574e-01
2.557375578251295245e-01 1.668400649125909574e-01
2.565244426184375981e-01 1.668400649125909574e-01
2.573113274117457272e-01 1.668400649125909574e-01
2.580982122050538008e-01 1.668400649125909574e-01
2.588850969983618744e-01 1.668400649125911794e-01
2.596719817916699480e-01 1.668400649125911794e-01
2.604588665849780771e-01 1.668400649125914015e-01
2.612457513782861507e-01 1.668400649125925117e-01
2.620326361715942243e-01 1.668400649125942881e-01
2.628195209649023534e-01 1.668400649125998392e-01
2.636064057582104270e-01 1.668400649126096091e-01
2.643932905515185006e-01 1.668400649126358104e-01
2.651801753448266297e-01 1.668400649126813295e-01
2.659670601381347033e-01 1.668400649127965707e-01
2.667539449314427769e-01 1.668400649129899715e-01
2.675408297247509060e-01 1.668400649134433866e-01
2.683277145180589796e-01 1.668400649141850156e-01
2.691145993113670531e-01 1.668400649158012783e-01
2.699014841046751823e-01 1.668400649183863216e-01
2.706883688979832558e-01 1.668400649236230215e-01
2.714752536912913294e-01 1.668400649318459994e-01
2.722621384845994030e-01 1.668400649473720243e-01
2.730490232779075321e-01 1.668400649714023576e-01
2.738359080712156057e-01 1.668400650139052477e-01
2.746227928645236793e-01 1.668400650790244910e-01
2.754096776578318084e-01 1.668400651877834928e-01
2.761965624511398820e-01 1.668400653533530509e-01
2.769834472444479556e-01 1.668400656174029439e-01
2.777703320377560847e-01 1.668400660177613570e-01
2.785572168310641583e-01 1.668400666354357131e-01
2.793441016243722319e-01 1.668400675683756607e-01
2.801309864176803610e-01 1.668400689776108337e-01
2.809178712109884346e-01 1.668400710939632603e-01
2.817047560042965082e-01 1.668400742492321953e-01
2.824916407976045818e-01 1.668400789474353552e-01
2.832785255909127109e-01 1.668400858828154032e-01
2.840654103842207845e-01 1.668400960984564030e-01
2.848522951775288581e-01 1.668401110263511011e-01
2.856391799708369872e-01 1.668401327556494618e-01
2.864260647641450608e-01 1.668401641492534004e-01
2.872129495574531344e-01 1.668402093039313971e-01
2.879998343507612635e-01 1.668402737566909710e-01
2.887867191440693371e-01 1.668403653748622428e-01
2.895736039373774107e-01 1.668404945693784391e-01
2.903604887306855398e-01 1.668406760443286174e-01
2.911473735239936134e-01 1.668409289115326821e-01
2.919342583173016870e-01 1.668412797717646612e-01
2.927211431106098161e-01 1.668417629005365388e-01
2.935080279039178897e-01 1.668424247983337771e-01
2.942949126972259632e-01 1.668433253365426694e-01
2.950817974905340368e-01 1.668445432057303890e-01
2.958686822838421659e-01 1.668461798235270077e-01
2.966555670771502395e-01 1.668483643971119257e-01
2.974424518704583131e-01 1.668512626646054819e-01
2.982293366637664422e-01 1.668550807113617918e-01
2.990162214570745158e-01 1.668600790278027546e-01
2.998031062503825894e-01 1.668665760620402505e-01
3.005899910436907185e-01 1.668749648006260244e-01
3.013768758369987921e-01 1.668857192076784735e-01
3.021637606303068657e-01 1.668994080801073920e-01
3.029506454236149948e-01 1.669167059719238733e-01
3.037375302169230684e-01 1.669383992559014818e-01
3.045244150102311420e-01 1.669653980248584357e-01
3.053112998035392156e-01 1.669987319173269480e-01
3.060981845968473447e-01 1.670395520714955673e-01
3.068850693901554183e-01 1.670891132732852391e-01
3.076719541834634919e-01 1.671487536175919608e-01
3.084588389767716210e-01 1.672198522320900160e-01
3.092457237700796946e-01 1.673037765208027494e-01
3.100326085633877682e-01 1.674017940590890596e-01
3.108194933566958973e-01 1.675149805807454317e-01
3.116063781500039709e-01 1.676440629521349646e-01
3.123932629433120445e-01 1.677892628568407041e-01
3.131801477366201736e-01 1.679500914541409706e-01
3.139670325299282472e-01 1.681250736955808289e-01
3.147539173232363208e-01 1.683114925362207970e-01
3.155408021165444499e-01 1.685050279882913671e-01
3.163276869098525235e-01 1.686993819643602954e-01
3.171145717031605971e-01 1.688859088046943402e-01
3.179014564964686707e-01 1.690531491733158198e-01
3.186883412897767998e-01 1.691863525856696082e-01
3.194752260830848734e-01 1.692671477253469003e-01
3.202621108763929469e-01 1.692730138140021712e-01
3.210489956697010761e-01 1.691769281912989253e-01
3.218358804630091496e-01 1.689471275787428617e-01
3.226227652563172232e-01 1.685467783964049726e-01
3.234096500496253523e-01 1.679341131835885292e-01
3.241965348429334259e-01 1.670623851252726055e-01
3.249834196362414995e-01 1.658800272095566353e-01
3.257703044295496286e-01 1.643317435929920745e-01
3.265571892228577022e-01 1.623584641270261475e-01
3.273440740161657758e-01 1.598993451944432653e-01
3.281309588094738494e-01 1.568928156011402120e-01
3.289178436027819785e-01 1.532773041530133273e-01
3.297047283960900521e-01 1.489946046990644479e-01
3.304916131893981257e-01 1.439914222322851156e-01
3.312784979827062548e-01 1.382219194087637160e-01
3.320653827760143284e-01 1.316484441245733272e-01
3.328522675693224020e-01 1.242477139193143287e-01
3.336391523626305311e-01 1.160100883992276621e-01
3.344260371559386047e-01 1.069441165927411674e-01
3.352129219492466783e-01 9.707417232558546161e-02
3.359998067425548074e-01 8.645082219144062385e-02
3.367866915358628810e-01 7.514318599461788928e-02
3.375735763291709546e-01 6.324148326916478879e-02
3.383604611224790837e-01 5.085994358641654500e-02
3.391473459157871573e-01 3.813607897810733505e-02
3.399342307090952309e-01 2.522377195594005528e-02
3.407211155024033045e-01 1.229473066536046488e-02
3.415080002957114336e-01 -4.669679410979066247e-04
3.422948850890195072e-01 -1.286487810381453656e-02
3.430817698823275808e-01 -2.470109890939409247e-02
3.438686546756357099e-01 -3.578136732887837734e-02
3.446555394689437835e-01 -4.591287548708433697e-02
3.454424242622518570e-01 -5.491300158525358466e-02
3.462293090555599862e-01 -6.262167870813994952e-02
3.470161938488680597e-01 -6.890212240089643725e-02
3.478030786421761333e-01 -7.363137216953830055e-02
3.485899634354842624e-01 -7.672357394134265984e-02
3.493768482287923360e-01 -7.812634218041059064e-02
3.501637330221004096e-01 -7.780475319614299501e-02
3.509506178154085387e-01 -7.576462760363955606e-02
3.517375026087166123e-01 -7.202342724820010034e-02
3.525243874020246859e-01 -6.662335158929844070e-02
3.533112721953327595e-01 -5.963279285435829635e-02
3.540981569886408886e-01 -5.113178450100253070e-02
3.548850417819489622e-01 -4.119308421797962527e-02
3.556719265752570358e-01 -2.989381515536293499e-02
3.564588113685651649e-01 -1.729218346415084540e-02
3.572456961618732385e-01 -3.458036525542107498e-03
3.580325809551813121e-01 1.158534320006410212e-02
3.588194657484894412e-01 2.781903871359303615e-02
3.596063505417975148e-01 4.523795697683263839e-02
3.603932353351055884e-01 6.388284229548135684e-02
3.611801201284137175e-01 8.378352532192656632e-02
3.619670049217217911e-01 1.049887537076295008e-01
3.627538897150298647e-01 1.275574611804761727e-01
3.635407745083379383e-01 1.515289368923908864e-01
3.643276593016460674e-01 1.769344666495351603e-01
3.651145440949541410e-01 2.037773245479030937e-01
3.659014288882622146e-01 2.320156749164639098e-01
3.666883136815703437e-01 2.615527500291825458e-01
3.674751984748784173e-01 2.922432164027843893e-01
3.682620832681864909e-01 3.238777137878958712e-01
3.690489680614946200e-01 3.561604821797548226e-01
3.698358528548026936e-01 3.887277786081755337e-01
3.706227376481107672e-01 4.211617693087423842e-01
3.714096224414188963e-01 4.529640868503073126e-01
3.721965072347269698e-01 4.835863883642630423e-01
3.729833920280350434e-01 5.124429062458519812e-01
3.737702768213431725e-01 5.389201567582593277e-01
3.745571616146512461e-01 5.624127049839879877e-01
3.753440464079593197e-01 5.823101139144395422e-01
3.761309312012673933e-01 5.980559691249109910e-01
3.769178159945755224e-01 6.091449684670451337e-01
3.777047007878835960e-01 6.151434761159018105e-01
3.784915855811916696e-01 6.157495476631753561e-01
3.792784703744997987e-01 6.107525495999395204e-01
3.800653551678078723e-01 6.000728122570149203e-01
3.808522399611159459e-01 5.837750899773874735e-01
3.816391247544240750e-01 5.620416407713715312e-01
3.824260095477321486e-01 5.352173360836345317e-01
3.832128943410402222e-01 5.037518184306413183e-01
3.839997791343483513e-01 4.682235114379407204e-01
3.847866639276564249e-01 4.293148822259924557e-01
3.855735487209644985e-01 3.877797004502290257e-01
3.863604335142725721e-01 3.444372176859571422e-01
3.871473183075807012e-01 3.001343334302071231e-01
3.879342031008887748e-01 2.557274056795471040e-01
3.887210878941968484e-01 2.120524202776952194e-01
3.895079726875049775e-01 1.699017084551210921e-01
3.902948574808130511e-01 1.299962989073204511e-01
3.910817422741211247e-01 9.298882810236630547e-02
3.918686270674292538e-01 5.942134082143346596e-02
3.926555118607373274e-01 2.972747288946209210e-02
3.934423966540454010e-01 4.229540867607184396e-03
3.942292814473535301e-01 -1.687528190762288549e-02
3.950161662406616037e-01 -3.352005836257998528e-02
3.958030510339696773e-01 -4.572734338077599769e-02
3.965899358272778064e-01 -5.363755930149527451e-02
3.973768206205858800e-01 -5.748134799806992046e-02
3.981637054138939535e-01 -5.757738814721768961e-02
3.989505902072020271e-01 -5.429528880778022870e-02
3.997374750005101562e-01 -4.806504792026011774e-02
4.005243597938182298e-01 -3.933412527045965223e-02
4.013112445871263034e-01 -2.856016672060590622e-02
4.020981293804344325e-01 -1.623210393908758320e-02
4.028850141737425061e-01 -2.794486404157248138e-03
4.036718989670505797e-01 1.132487067434517769e-02
4.044587837603587088e-01 2.571488635499119546e-02
4.052456685536667824e-01 4.002559615490164369e-02
4.060325533469748560e-01 5.395360051199582507e-02
4.068194381402829851e-01 6.723333386234231490e-02
4.076063229335910587e-01 7.967126075387054307e-02
4.083932077268991323e-01 9.110804184822174356e-02
4.091800925202072059e-01 1.014359957660482259e-01
4.099669773135153350e-01 1.105860027030389769e-01
4.107538621068234086e-01 1.185420559676697572e-01
4.115407469001314822e-01 1.253361689429894898e-01
4.123276316934396113e-01 1.310127238191347576e-01
4.131145164867476849e-01 1.356575746688286621e-01
4.139014012800557585e-01 1.393551204110190511e-01
4.146882860733638876e-01 1.422305042703533307e-01
4.154751708666719612e-01 1.443986833950539062e-01
4.162620556599800348e-01 1.459928043555298594e-01
4.170489404532881639e-01 1.471511067604034384e-01
4.178358252465962375e-01 1.479805444121344848e-01
4.186227100399043111e-01 1.486171741886823661e-01
4.194095948332124402e-01 1.491577638160825892e-01
4.201964796265205138e-01 1.497114498274574323e-01
4.209833644198285874e-01 1.503611759879801557e-01
4.217702492131366609e-01 1.511840654477236701e-01
4.225571340064447901e-01 1.522375967807996222e-01
4.233440187997528636e-01 1.535537833702571575e-01
4.241309035930609372e-01 1.551813728675575099e-01
4.249177883863690663e-01 1.571429201562126732e-01
4.257046731796771399e-01 1.594282391597978688e-01
4.264915579729852135e-01 1.620613399156001222e-01
4.272784427662933426e-01 1.650153020787825664e-01
4.280653275596014162e-01 1.682741189578207397e-01
4.288522123529094898e-01 1.718181459767522679e-01
4.296390971462176189e-01 1.756306488671650623e-01
4.304259819395256925e-01 1.796890727455473513e-01
4.312128667328337661e-01 1.839504905755373620e-01
4.319997515261418397e-01 1.884141747802479117e-01
4.327866363194499688e-01 1.930524774379545061e-01
4.335735211127580424e-01 1.978537573184571130e-01
4.343604059060661160e-01 2.028012801533440879e-01
4.351472906993742451e-01 2.078979562501650502e-01
4.359341754926823187e-01 2.131365098400455071e-01
4.367210602859903923e-01 2.185198512305348562e-01
4.375079450792985214e-01 2.240705353051455351e-01
4.382948298726065950e-01 2.297921999483147903e-01
4.390817146659146686e-01 2.357168585430917673e-01
4.398685994592227977e-01 2.418656108192138721e-01
4.406554842525308713e-01 2.482588289295302175e-01
4.414423690458389449e-01 2.549343468721900763e-01
4.422292538391470740e-01 2.619212677226929742e-01
4.430161386324551476e-01 2.692450566721005245e-01
4.438030234257632212e-01 2.769355443727998800e-01
4.445899082190712948e-01 2.850218339002901224e-01
4.453767930123794239e-01 2.935250249843082138e-01
4.461636778056874975e-01 3.024771310079035214e-01
4.469505625989955711e-01 3.118847001630635773e-01
4.477374473923037002e-01 3.217542806417754697e-01
4.485243321856117737e-01 3.320982412511266357e-01
4.493112169789198473e-01 3.429122165297919800e-01
4.500981017722279764e-01 3.541671034022721987e-01
4.508849865655360500e-01 3.658512606383677035e-01
4.516718713588441236e-01 3.779399506239040640e-01
4.524587561521522527e-01 3.903793326692073240e-01
4.532456409454603263e-01 4.031068351619537804e-01
4.540325257387683999e-01 4.160577037591579597e-01
4.548194105320764735e-01 4.291613635027333729e-01
4.556062953253846026e-01 4.423297775892949257e-01
4.563931801186926762e-01 4.554363476404204025e-01
4.571800649120007498e-01 4.683850335069619231e-01
4.579669497053088789e-01 4.810543298487099939e-01
4.587538344986169525e-01 4.932899903655179052e-01
4.595407192919250261e-01 5.049574133332010994e-01
4.603276040852331552e-01 5.159292727964504000e-01
4.611144888785412288e-01 5.260564154933313752e-01
4.619013736718493024e-01 5.351649505477358293e-01
4.626882584651574315e-01 5.431362829270036663e-01
4.634751432584655051e-01 5.498401763682754240e-01
4.642620280517735787e-01 5.551136536487548678e-01
4.650489128450817078e-01 5.588730434263815550e-01
4.658357976383897814e-01 5.610062988604826995e-01
4.666226824316978550e-01 5.614319313396605171e-01
4.674095672250059286e-01 5.600735452907290579e-01
4.681964520183140577e-01 5.569020376381890181e-01
4.689833368116221313e-01 5.518810295376663788e-01
4.697702216049302049e-01 5.450170691811482282e-01
4.705571063982383340e-01 5.363374407019152468e-01