0.000000000000000000e+00 9.435663500954860616e-02
7.868847933080908323e-04 1.362775646627691906e-01
1.573769586616181665e-03 1.362775646627691906e-01
2.360654379924272388e-03 1.362775646627691906e-01
3.147539173232363329e-03 1.362775646627691906e-01
3.934423966540453836e-03 1.362775646627691906e-01
4.721308759848544777e-03 1.362775646627691906e-01
5.508193553156635718e-03 1.362775646627691906e-01
6.295078346464726658e-03 1.362775646627691906e-01
7.081963139772817599e-03 1.362775646627691906e-01
7.868847933080907672e-03 1.362775646627691906e-01
8.655732726388998613e-03 1.362775646627691906e-01
9.442617519697089554e-03 1.362775646627691906e-01
1.022950231300518049e-02 1.362775646627691906e-01
1.101638710631327144e-02 1.362775646627691906e-01
1.180327189962136238e-02 1.362775646627691906e-01
1.259015669292945332e-02 1.362775646627691906e-01
1.337704148623754426e-02 1.362775646627691906e-01
1.416392627954563520e-02 1.362775646627691906e-01
1.495081107285372614e-02 1.362775646627691906e-01
1.573769586616181534e-02 1.362775646627691906e-01
1.652458065946990629e-02 1.362775646627691906e-01
1.731146545277799723e-02 1.362775646627691906e-01
1.809835024608608817e-02 1.362775646627691906e-01
1.888523503939417911e-02 1.362775646627691906e-01
1.967211983270227005e-02 1.362775646627691906e-01
2.045900462601036099e-02 1.362775646627691906e-01
2.124588941931845193e-02 1.362775646627691906e-01
2.203277421262654287e-02 1.362775646627691906e-01
2.281965900593463381e-02 1.362775646627691906e-01
2.360654379924272475e-02 1.362775646627691906e-01
2.439342859255081569e-02 1.362775646627691906e-01
2.518031338585890663e-02 1.362775646627691906e-01
2.596719817916699757e-02 1.362775646627691906e-01
2.675408297247508851e-02 1.362775646627691906e-01
2.754096776578317946e-02 1.362775646627691906e-01
2.832785255909127040e-02 1.362775646627691906e-01
2.911473735239936134e-02 1.362775646627691906e-01
2.990162214570745228e-02 1.362775646627691906e-01
3.068850693901554322e-02 1.362775646627691906e-01
3.147539173232363069e-02 1.362775646627691906e-01
3.226227652563172510e-02 1.362775646627691906e-01
3.304916131893981257e-02 1.362775646627691906e-01
3.383604611224790698e-02 1.362775646627691906e-01
3.462293090555599445e-02 1.362775646627691906e-01
3.540981569886408886e-02 1.362775646627691906e-01
3.619670049217217633e-02 1.362775646627691906e-01
3.698358528548027074e-02 1.362775646627691906e-01
3.777047007878835821e-02 1.362775646627691906e-01
3.855735487209645262e-02 1.362775646627691906e-01
3.934423966540454010e-02 1.362775646627691906e-01
4.013112445871263451e-02 1.362775646627691906e-01
4.091800925202072198e-02 1.362775646627691906e-01
4.170489404532881639e-02 1.362775646627691906e-01
4.249177883863690386e-02 1.362775646627691906e-01
4.327866363194499827e-02 1.362775646627691906e-01
4.406554842525308574e-02 1.362775646627691906e-01
4.485243321856118015e-02 1.362775646627691906e-01
4.563931801186926762e-02 1.362775646627691906e-01
4.642620280517736203e-02 1.362775646627691906e-01
4.721308759848544950e-02 1.362775646627691906e-01
4.799997239179354391e-02 1.362775646627691906e-01
4.878685718510163138e-02 1.362775646627691906e-01
4.957374197840972579e-02 1.362775646627691906e-01
5.036062677171781327e-02 1.362775646627691906e-01
5.114751156502590074e-02 1.362775646627691906e-01
5.193439635833399515e-02 1.362775646627691906e-01
5.272128115164208262e-02 1.362775646627691906e-01
5.350816594495017703e-02 1.362775646627691906e-01
5.429505073825826450e-02 1.362775646627691906e-01
5.508193553156635891e-02 1.362775646627691906e-01
5.586882032487444638e-02 1.362775646627691906e-01
5.665570511818254079e-02 1.362775646627691906e-01
5.744258991149062826e-02 1.362775646627691906e-01
5.822947470479872267e-02 1.362775646627691906e-01
5.901635949810681014e-02 1.362775646627691906e-01
5.980324429141490455e-02 1.362775646627691906e-01
6.059012908472299203e-02 1.362775646627691906e-01
6.137701387803108644e-02 1.362775646627691906e-01
6.216389867133917391e-02 1.362775646627691906e-01
6.295078346464726138e-02 1.362775646627691906e-01
6.373766825795536273e-02 1.362775646627691906e-01
6.452455305126345020e-02 1.362775646627691906e-01
6.531143784457153767e-02 1.362775646627691906e-01
6.609832263787962514e-02 1.362775646627691906e-01
6.688520743118772649e-02 1.362775646627691906e-01
6.767209222449581396e-02 1.362775646627691906e-01
6.845897701780390143e-02 1.362775646627691906e-01
6.924586181111198890e-02 1.362775646627691906e-01
7.003274660442009025e-02 1.362775646627691906e-01
7.081963139772817772e-02 1.362775646627691906e-01
7.160651619103626520e-02 1.362775646627691906e-01
7.239340098434435267e-02 1.362775646627691906e-01
7.318028577765245402e-02 1.362775646627691906e-01
7.396717057096054149e-02 1.362775646627691906e-01
7.475405536426862896e-02 1.362775646627691906e-01
7.554094015757671643e-02 1.362775646627691906e-01
7.632782495088480390e-02 1.362775646627691906e-01
7.711470974419290525e-02 1.362775646627691906e-01
7.790159453750099272e-02 1.362775646627691906e-01
7.868847933080908019e-02 1.362775646627691906e-01
7.947536412411716766e-02 1.362775646627691906e-01
8.026224891742526901e-02 1.362775646627691906e-01
8.104913371073335648e-02 1.362775646627691906e-01
8.183601850404144396e-02 1.362775646627691906e-01
8.262290329734953143e-02 1.362775646627691906e-01
8.340978809065763278e-02 1.362775646627691906e-01
8.419667288396572025e-02 1.362775646627691906e-01
8.498355767727380772e-02 1.362775646627691906e-01
8.577044247058189519e-02 1.362775646627691906e-01
8.655732726388999654e-02 1.362775646627691906e-01
8.734421205719808401e-02 1.362775646627691906e-01
8.813109685050617148e-02 1.362775646627691906e-01
8.891798164381425895e-02 1.362775646627691906e-01
8.970486643712236030e-02 1.362775646627691906e-01
9.049175123043044777e-02 1.362775646627691906e-01
9.127863602373853524e-02 1.362775646627691906e-01
9.206552081704662271e-02 1.362775646627691906e-01
9.285240561035472406e-02 1.362775646627691906e-01
9.363929040366281153e-02 1.362775646627691906e-01
9.442617519697089901e-02 1.362775646627691906e-01
9.521305999027898648e-02 1.362775646627691906e-01
9.599994478358708783e-02 1.362775646627691906e-01
9.678682957689517530e-02 1.362775646627691906e-01
9.757371437020326277e-02 1.362775646627691906e-01
9.836059916351135024e-02 1.362775646627691906e-01
9.914748395681945159e-02 1.362775646627691906e-01
9.993436875012753906e-02 1.362775646627691906e-01
1.007212535434356265e-01 1.362775646627691906e-01
1.015081383367437140e-01 1.362775646627691906e-01
1.022950231300518015e-01 1.362775646627691906e-01
1.030819079233599028e-01 1.362775646627691906e-01
1.038687927166679903e-01 1.362775646627691906e-01
1.046556775099760778e-01 1.362775646627691906e-01
1.054425623032841652e-01 1.362775646627691906e-01
1.062294470965922666e-01 1.362775646627691906e-01
1.070163318899003541e-01 1.362775646627691906e-01
1.078032166832084415e-01 1.362775646627691906e-01
1.085901014765165290e-01 1.362775646627691906e-01
1.093769862698246303e-01 1.362775646627691906e-01
1.101638710631327178e-01 1.362775646627691906e-01
1.109507558564408053e-01 1.362775646627691906e-01
1.117376406497488928e-01 1.362775646627691906e-01
1.125245254430569941e-01 1.362775646627691906e-01
1.133114102363650816e-01 1.362775646627691906e-01
1.140982950296731691e-01 1.362775646627691906e-01
1.148851798229812565e-01 1.362775646627691906e-01
1.156720646162893579e-01 1.362775646627691906e-01
1.164589494095974453e-01 1.362775646627691906e-01
1.172458342029055328e-01 1.362775646627691906e-01
1.180327189962136203e-01 1.362775646627691906e-01
1.188196037895217216e-01 1.362775646627691906e-01
1.196064885828298091e-01 1.362775646627691906e-01
1.203933733761378966e-01 1.362775646627691906e-01
1.211802581694459841e-01 1.362775646627691906e-01
1.219671429627540854e-01 1.362775646627691906e-01
1.227540277560621729e-01 1.362775646627691906e-01
1.235409125493702603e-01 1.362775646627691906e-01
1.243277973426783478e-01 1.362775646627691906e-01
1.251146821359864492e-01 1.362775646627691906e-01
1.259015669292945228e-01 1.362775646627691906e-01
1.266884517226026241e-01 1.362775646627691906e-01
1.274753365159107255e-01 1.362775646627691906e-01
1.282622213092187990e-01 1.362775646627691906e-01
1.290491061025269004e-01 1.362775646627691906e-01
1.298359908958349740e-01 1.362775646627691906e-01
1.306228756891430753e-01 1.362775646627691906e-01
1.314097604824511767e-01 1.362775646627691906e-01
1.321966452757592503e-01 1.362775646627691906e-01
1.329835300690673516e-01 1.362775646627691906e-01
1.337704148623754530e-01 1.362775646627691906e-01
1.345572996556835266e-01 1.362775646627691906e-01
1.353441844489916279e-01 1.362775646627691906e-01
1.361310692422997015e-01 1.362775646627691906e-01
1.369179540356078029e-01 1.362775646627691906e-01
1.377048388289159042e-01 1.362775646627691906e-01
1.384917236222239778e-01 1.362775646627691906e-01
1.392786084155320792e-01 1.362775646627691906e-01
1.400654932088401805e-01 1.362775646627691906e-01
1.408523780021482541e-01 1.362775646627691906e-01
1.416392627954563554e-01 1.362775646627691906e-01
1.424261475887644290e-01 1.362775646627691906e-01
1.432130323820725304e-01 1.362775646627691906e-01
1.439999171753806317e-01 1.362775646627691906e-01
1.447868019686887053e-01 1.362775646627691906e-01
1.455736867619968067e-01 1.362775646627691906e-01
1.463605715553049080e-01 1.362775646627691906e-01
1.471474563486129816e-01 1.362775646627691906e-01
1.479343411419210830e-01 1.362775646627691906e-01
1.487212259352291566e-01 1.362775646627691906e-01
1.495081107285372579e-01 1.362775646627691906e-01
1.502949955218453593e-01 1.362775646627691906e-01
1.510818803151534329e-01 1.362775646627691906e-01
1.518687651084615342e-01 1.362775646627691906e-01
1.526556499017696078e-01 1.362775646627691906e-01
1.534425346950777092e-01 1.362775646627691906e-01
1.542294194883858105e-01 1.362775646627691906e-01
1.550163042816938841e-01 1.362775646627691906e-01
1.558031890750019854e-01 1.362775646627691906e-01
1.565900738683100868e-01 1.362775646627691906e-01
1.573769586616181604e-01 1.362775646627691906e-01
1.581638434549262617e-01 1.362775646627691906e-01
1.589507282482343353e-01 1.362775646627691906e-01
1.597376130415424367e-01 1.362775646627691906e-01
1.605244978348505380e-01 1.362775646627691906e-01
1.613113826281586116e-01 1.362775646627691906e-01
1.620982674214667130e-01 1.362775646627691906e-01
1.628851522147748143e-01 1.362775646627691906e-01
1.636720370080828879e-01 1.362775646627691906e-01
1.644589218013909893e-01 1.362775646627691906e-01
1.652458065946990629e-01 1.362775646627691906e-01
1.660326913880071642e-01 1.362775646627691906e-01
1.668195761813152656e-01 1.362775646627691906e-01
1.676064609746233391e-01 1.362775646627691906e-01
1.683933457679314405e-01 1.362775646627691906e-01
1.691802305612395418e-01 1.362775646627691906e-01
1.699671153545476154e-01 1.362775646627691906e-01
1.707540001478557168e-01 1.362775646627691906e-01
1.715408849411637904e-01 1.362775646627691906e-01
1.723277697344718917e-01 1.362775646627691906e-01
1.731146545277799931e-01 1.362775646627691906e-01
1.739015393210880667e-01 1.362775646627691906e-01
1.746884241143961680e-01 1.362775646627691906e-01
1.754753089077042694e-01 1.362775646627691906e-01
1.762621937010123430e-01 1.362775646627691906e-01
1.770490784943204443e-01 1.362775646627691906e-01
1.778359632876285179e-01 1.362775646627691906e-01
1.786228480809366193e-01 1.362775646627691906e-01
1.794097328742447206e-01 1.362775646627691906e-01
1.801966176675527942e-01 1.362775646627691906e-01
1.809835024608608955e-01 1.362775646627691906e-01
1.817703872541689691e-01 1.362775646627691906e-01
1.825572720474770705e-01 1.362775646627691906e-01
1.833441568407851718e-01 1.362775646627691906e-01
1.841310416340932454e-01 1.362775646627691906e-01
1.849179264274013468e-01 1.362775646627691906e-01
1.857048112207094481e-01 1.362775646627691906e-01
1.864916960140175217e-01 1.362775646627691906e-01
1.872785808073256231e-01 1.362775646627691906e-01
1.880654656006336967e-01 1.362775646627691906e-01
1.888523503939417980e-01 1.362775646627691906e-01
1.896392351872498994e-01 1.362775646627691906e-01
1.904261199805579730e-01 1.362775646627691906e-01
1.912130047738660743e-01 1.362775646627691906e-01
1.919998895671741757e-01 1.362775646627691906e-01
1.927867743604822492e-01 1.362775646627691906e-01
1.935736591537903506e-01 1.362775646627691906e-01
1.943605439470984242e-01 1.362775646627691906e-01
1.951474287404065255e-01 1.362775646627691906e-01
1.959343135337146269e-01 1.362775646627691906e-01
1.967211983270227005e-01 1.362775646627691906e-01
1.975080831203308018e-01 1.362775646627691906e-01
1.982949679136389032e-01 1.362775646627691906e-01
1.990818527069469768e-01 1.362775646627691906e-01
1.998687375002550781e-01 1.362775646627691906e-01
2.006556222935631517e-01 1.362775646627691906e-01
2.014425070868712531e-01 1.362775646627691906e-01
2.022293918801793544e-01 1.362775646627691906e-01
2.030162766734874280e-01 1.362775646627691906e-01
2.038031614667955294e-01 1.362775646627691906e-01
2.045900462601036029e-01 1.362775646627691906e-01
2.053769310534117043e-01 1.362775646627691906e-01
2.061638158467198056e-01 1.362775646627691906e-01
2.069507006400278792e-01 1.362775646627691906e-01
2.077375854333359806e-01 1.362775646627691906e-01
2.085244702266440819e-01 1.362775646627691906e-01
2.093113550199521555e-01 1.362775646627691906e-01
2.100982398132602569e-01 1.362775646627691906e-01
2.108851246065683305e-01 1.362775646627691906e-01
2.116720093998764318e-01 1.362775646627691906e-01
2.124588941931845332e-01 1.362775646627691906e-01
2.132457789864926068e-01 1.362775646627691906e-01
2.140326637798007081e-01 1.362775646627691906e-01
2.148195485731088095e-01 1.362775646627691906e-01
2.156064333664168831e-01 1.362775646627691906e-01
2.163933181597249844e-01 1.362775646627691906e-01
2.171802029530330580e-01 1.362775646627691906e-01
2.179670877463411593e-01 1.362775646627691906e-01
2.187539725396492607e-01 1.362775646627691906e-01
2.195408573329573343e-01 1.362775646627691906e-01
2.203277421262654356e-01 1.362775646627691906e-01
2.211146269195735370e-01 1.362775646627691906e-01
2.219015117128816106e-01 1.362775646627691906e-01
2.226883965061897119e-01 1.362775646627691906e-01
2.234752812994977855e-01 1.362775646627691906e-01
2.242621660928058869e-01 1.362775646627691906e-01
2.250490508861139882e-01 1.362775646627691906e-01
2.258359356794220618e-01 1.362775646627691906e-01
2.266228204727301632e-01 1.362775646627691906e-01
2.274097052660382368e-01 1.362775646627691906e-01
2.281965900593463381e-01 1.362775646627691906e-01
2.289834748526544395e-01 1.362775646627691906e-01
2.297703596459625131e-01 1.362775646627691906e-01
2.305572444392706144e-01 1.362775646627691906e-01
2.313441292325787157e-01 1.362775646627691906e-01
2.321310140258867893e-01 1.362775646627691906e-01
2.329178988191948907e-01 1.362775646627691906e-01
2.337047836125029643e-01 1.362775646627691906e-01
2.344916684058110656e-01 1.362775646627691906e-01
2.352785531991191670e-01 1.362775646627691906e-01
2.360654379924272406e-01 1.362775646627691906e-01
2.368523227857353419e-01 1.362775646627691906e-01
2.376392075790434433e-01 1.362775646627691906e-01
2.384260923723515169e-01 1.362775646627691906e-01
2.392129771656596182e-01 1.362775646627691906e-01
2.399998619589676918e-01 1.362775646627691906e-01
2.407867467522757932e-01 1.362775646627691906e-01
2.415736315455838945e-01 1.362775646627691906e-01
2.423605163388919681e-01 1.362775646627691906e-01
2.431474011322000695e-01 1.362775646627691906e-01
2.439342859255081708e-01 1.362775646627691906e-01
2.447211707188162444e-01 1.362775646627691906e-01
2.455080555121243457e-01 1.362775646627691906e-01
2.462949403054324193e-01 1.362775646627691906e-01
2.470818250987405207e-01 1.362775646627691906e-01
2.478687098920486220e-01 1.362775646627691906e-01
2.486555946853566956e-01 1.362775646627691906e-01
2.494424794786647970e-01 1.362775646627691906e-01
2.502293642719728983e-01 1.362775646627691906e-01
2.510162490652809719e-01 1.362775646627694126e-01
2.518031338585890455e-01 1.362775646627694126e-01
2.525900186518971746e-01 1.362775646627700787e-01
2.533769034452052482e-01 1.362775646627705228e-01
2.541637882385133218e-01 1.362775646627736315e-01
2.549506730318214509e-01 1.362775646627771842e-01
2.557375578251295245e-01 1.362775646627942816e-01
2.565244426184375981e-01 1.362775646628135995e-01
2.573113274117457272e-01 1.362775646628979764e-01
2.580982122050538008e-01 1.362775646629950099e-01
2.588850969983618744e-01 1.362775646633722637e-01
2.596719817916699480e-01 1.362775646638152427e-01
2.604588665849780771e-01 1.362775646653502370e-01
2.612457513782861507e-01 1.362775646671978702e-01
2.620326361715942243e-01 1.362775646728919821e-01
2.628195209649023534e-01 1.362775646799363471e-01
2.636064057582104270e-01 1.362775646992466783e-01
2.643932905515185006e-01 1.362775647238747556e-01
2.651801753448266297e-01 1.362775647839844506e-01
2.659670601381347033e-01 1.362775648632159609e-01
2.667539449314427769e-01 1.362775650360039670e-01
2.675408297247509060e-01 1.362775652716952113e-01
2.683277145180589796e-01 1.362775657343400226e-01
2.691145993113670531e-01 1.362775663868913689e-01
2.699014841046751823e-01 1.362775675541316733e-01
2.706883688979832558e-01 1.362775692500255431e-01
2.714752536912913294e-01 1.362775720632920518e-01
2.722621384845994030e-01 1.362775762427341775e-01
2.730490232779075321e-01 1.362775828093178987e-01
2.738359080712156057e-01 1.362775926833867945e-01
2.746227928645236793e-01 1.362776076821972104e-01
2.754096776578318084e-01 1.362776302668762263e-01
2.761965624511398820e-01 1.362776639523353150e-01
2.769834472444479556e-01 1.362777143194506824e-01
2.777703320377560847e-01 1.362777886806274541e-01
2.785572168310641583e-01 1.362778985883350558e-01
2.793441016243722319e-01 1.362780594979731141e-01
2.801309864176803610e-01 1.362782943237159650e-01
2.809178712109884346e-01 1.362786348291549210e-01
2.817047560042965082e-01 1.362791257362008235e-01
2.824916407976045818e-01 1.362798297350740206e-01
2.832785255909127109e-01 1.362808330960034731e-01
2.840654103842207845e-01 1.362822553148872462e-01
2.848522951775288581e-01 1.362842596097013637e-01
2.856391799708369872e-01 1.362870677604206548e-01
2.864260647641450608e-01 1.362909804314340612e-01
2.872129495574531344e-01 1.362963995926944616e-01
2.879998343507612635e-01 1.363038634633968460e-01
2.887867191440693371e-01 1.363140824809765395e-01
2.895736039373774107e-01 1.363279937566910238e-01
2.903604887306855398e-01 1.363468194080583729e-01
2.911473735239936134e-01 1.363721471957459741e-01
2.919342583173016870e-01 1.364060214341993316e-01
2.927211431106098161e-01 1.364510582996862897e-01
2.935080279039178897e-01 1.365105808265796306e-01
2.942949126972259632e-01 1.365887769980813626e-01
2.950817974905340368e-01 1.366908911499808976e-01
2.958686822838421659e-01 1.368234309895799417e-01
2.966555670771502395e-01 1.369944211523250743e-01
2.974424518704583131e-01 1.372136679209201571e-01
2.982293366637664422e-01 1.374930654549273434e-01
2.990162214570745158e-01 1.378469159324327009e-01
2.998031062503825894e-01 1.382922709496752223e-01
3.005899910436907185e-01 1.388492834675836285e-01
3.013768758369987921e-01 1.395415470363621235e-01
3.021637606303068657e-01 1.403964291105295192e-01
3.029506454236149948e-01 1.414453502751571445e-01
3.037375302169230684e-01 1.427240163598617606e-01
3.045244150102311420e-01 1.442725430318199109e-01
3.053112998035392156e-01 1.461354925663007620e-01
3.060981845968473447e-01 1.483617119906566195e-01
3.068850693901554183e-01 1.510040136403130173e-01
3.076719541834634919e-01 1.541186419860323120e-01
3.084588389767716210e-01 1.577644600858589818e-01
3.092457237700796946e-01 1.620018543485126639e-01
3.100326085633877682e-01 1.668913293737142034e-01
3.108194933566958973e-01 1.724918178208747488e-01
3.116063781500039709e-01 1.788585936813178456e-01
3.123932629433120445e-01 1.860408979523981987e-01
3.131801477366201736e-01 1.940793095443529293e-01
3.139670325299282472e-01 2.030028246493520427e-01
3.147539173232363208e-01 2.128257154873454127e-01
3.155408021165444499e-01 2.235444836047124628e-01
3.163276869098525235e-01 2.351344086970421632e-01
3.171145717031605971e-01 2.475469851776508357e-01
3.179014564964686707e-01 2.607065287826288991e-01
3.186883412897767998e-01 2.745084220910978257e-01
3.194752260830848734e-01 2.888170133518639382e-01
3.202621108763929469e-01 3.034646079202132363e-01
3.210489956697010761e-01 3.182514892696439723e-01
3.218358804630091496e-01 3.329469275550729357e-01
3.226227652563172232e-01 3.472904193051100652e-01
3.234096500496253523e-01 3.609954905458125918e-01
3.241965348429334259e-01 3.737554960391200609e-01
3.249834196362414995e-01 3.852459305735345119e-01
3.257703044295496286e-01 3.951347247135135188e-01
3.265571892228577022e-01 4.030874136859001755e-01
3.273440740161657758e-01 4.087790720445274584e-01
3.281309588094738494e-01 4.119011634953237966e-01
3.289178436027819785e-01 4.121710381998358041e-01
3.297047283960900521e-01 4.093479016926548919e-01
3.304916131893981257e-01 4.032326467875497755e-01
3.312784979827062548e-01 3.936874365130473841e-01
3.320653827760143284e-01 3.806374690980436348e-01
3.328522675693224020e-01 3.640793826651853582e-01
3.336391523626305311e-01 3.440886513610477149e-01
3.344260371559386047e-01 3.208209301070741315e-01
3.352129219492466783e-01 2.945128950689159808e-01
3.359998067425548074e-01 2.654840926889756592e-01
3.367866915358628810e-01 2.341278626175542499e-01
3.375735763291709546e-01 2.009118419944539990e-01
3.383604611224790837e-01 1.663638455640952252e-01
3.391473459157871573e-01 1.310644695453413444e-01
3.399342307090952309e-01 9.563431649755593789e-02
3.407211155024033045e-01 6.071180693007316442e-02
3.415080002957114336e-01 2.694998551871319314e-02
3.422948850890195072e-01 -5.021131920571630936e-03
3.430817698823275808e-01 -3.458682611378571803e-02
3.438686546756357099e-01 -6.118734448165485951e-02
3.446555394689437835e-01 -8.431773304575829187e-02
3.454424242622518570e-01 -1.035542271657508007e-01
3.462293090555599862e-01 -1.185578655575161289e-01
3.470161938488680597e-01 -1.290920561023368718e-01
3.478030786421761333e-01 -1.350248451141079498e-01
3.485899634354842624e-01 -1.363269002129244845e-01
3.493768482287923360e-01 -1.330895804158541695e-01
3.501637330221004096e-01 -1.254968644610398032e-01
3.509506178154085387e-01 -1.138412356781923762e-01
3.517375026087166123e-01 -9.849674494629989674e-02
3.525243874020246859e-01 -7.990959743703918150e-02
3.533112721953327595e-01 -5.858617592670567475e-02
3.540981569886408886e-01 -3.507564308091182248e-02
3.548850417819489622e-01 -9.950526612873211718e-03
3.556719265752570358e-01 1.620508931079323034e-02
3.564588113685651649e-01 4.282359372250099661e-02
3.572456961618732385e-01 6.935691656677689387e-02
3.580325809551813121e-01 9.530153266307594961e-02
3.588194657484894412e-01 1.202040508268789054e-01
3.596063505417975148e-01 1.436708372436168446e-01
3.603932353351055884e-01 1.653740668479055653e-01
3.611801201284137175e-01 1.850542447315599581e-01
3.619670049217217911e-01 2.025126839430182457e-01
3.627538897150298647e-01 2.176245327620831560e-01
3.635407745083379383e-01 2.303182672480696969e-01
3.643276593016460674e-01 2.405779605070181848e-01
3.651145440949541410e-01 2.484243721315833042e-01
3.659014288882622146e-01 2.539209995802695907e-01
3.666883136815703437e-01 2.571606726914870134e-01
3.674751984748784173e-01 2.582441217154247681e-01
3.682620832681864909e-01 2.572865749983568318e-01
3.690489680614946200e-01 2.544120017676751999e-01
3.698358528548026936e-01 2.497336132432417255e-01
3.706227376481107672e-01 2.433654611142572755e-01
3.714096224414188963e-01 2.354115954847970649e-01
3.721965072347269698e-01 2.259676617655537179e-01
3.729833920280350434e-01 2.151366174504631967e-01
3.737702768213431725e-01 2.029963740471809608e-01
3.745571616146512461e-01 1.896342563199511222e-01
3.753440464079593197e-01 1.751377571268857292e-01
3.761309312012673933e-01 1.595991600013246803e-01
3.769178159945755224e-01 1.431115889459455559e-01
3.777047007878835960e-01 1.257853975848608474e-01
3.784915855811916696e-01 1.077505224777641768e-01
3.792784703744997987e-01 8.913252974378971238e-02
3.800653551678078723e-01 7.008707430438132491e-02
3.808522399611159459e-01 5.077872005596861804e-02
3.816391247544240750e-01 3.136808068909080482e-02
3.824260095477321486e-01 1.203711781547900372e-02
3.832128943410402222e-01 -7.027836512576657313e-03
3.839997791343483513e-01 -2.566053745997054492e-02
3.847866639276564249e-01 -4.368389813713335901e-02
3.855735487209644985e-01 -6.093520368017990574e-02
3.863604335142725721e-01 -7.726859063545699069e-02
3.871473183075807012e-01 -9.254727261816453332e-02
3.879342031008887748e-01 -1.066661489375543281e-01
3.887210878941968484e-01 -1.195407314133988264e-01
3.895079726875049775e-01 -1.311160323392429605e-01
3.902948574808130511e-01 -1.413542516065992016e-01
3.910817422741211247e-01 -1.502525316197171890e-01
3.918686270674292538e-01 -1.578248872048124696e-01
3.926555118607373274e-01 -1.641019324575306859e-01
3.934423966540454010e-01 -1.691437399238232553e-01
3.942292814473535301e-01 -1.730278849236105421e-01
3.950161662406616037e-01 -1.758270260311843858e-01
3.958030510339696773e-01 -1.776351697420279763e-01
3.965899358272778064e-01 -1.785438431670767212e-01
3.973768206205858800e-01 -1.786358745596150488e-01
3.981637054138939535e-01 -1.780019085377733123e-01
3.989505902072020271e-01 -1.767265803639130883e-01
3.997374750005101562e-01 -1.748703197834547973e-01
4.005243597938182298e-01 -1.724962460437007294e-01
4.013112445871263034e-01 -1.696418440771368941e-01
4.020981293804344325e-01 -1.663453552386537915e-01
4.028850141737425061e-01 -1.626240931966191905e-01
4.036718989670505797e-01 -1.584842774241362884e-01
4.044587837603587088e-01 -1.539338083329845341e-01
4.052456685536667824e-01 -1.489548679731930170e-01
4.060325533469748560e-01 -1.435294703009233341e-01
4.068194381402829851e-01 -1.376441678067633623e-01
4.076063229335910587e-01 -1.312668545619919414e-01
4.083932077268991323e-01 -1.243832425878589332e-01
4.091800925202072059e-01 -1.169703030244961806e-01
4.099669773135153350e-01 -1.089969385063884744e-01
4.107538621068234086e-01 -1.004587785929770272e-01
4.115407469001314822e-01 -9.133632439561434335e-02
4.123276316934396113e-01 -8.161612840488841059e-02
4.131145164867476849e-01 -7.130760387738765971e-02
4.139014012800557585e-01 -6.039663092822944446e-02
4.146882860733638876e-01 -4.888791618570809128e-02
4.154751708666719612e-01 -3.678851959226481227e-02
4.162620556599800348e-01 -2.409911352337013035e-02
4.170489404532881639e-01 -1.083247311296564597e-02
4.178358252465962375e-01 3.013418765360542650e-03
4.186227100399043111e-01 1.742175272484369764e-02
4.194095948332124402e-01 3.239454589189505462e-02
4.201964796265205138e-01 4.791498887975009779e-02
4.209833644198285874e-01 6.397333224408496832e-02
4.217702492131366609e-01 8.056520554434087877e-02
4.225571340064447901e-01 9.767346320601744125e-02
4.233440187997528636e-01 1.152712102102904090e-01
4.241309035930609372e-01 1.333355857911597830e-01
4.249177883863690663e-01 1.518376778033896368e-01
4.257046731796771399e-01 1.707236962093319210e-01
4.264915579729852135e-01 1.899408595345446482e-01
4.272784427662933426e-01 2.094256282970561323e-01
4.280653275596014162e-01 2.290942917507765575e-01
4.288522123529094898e-01 2.488496916402045400e-01
4.296390971462176189e-01 2.685886183306025465e-01
4.304259819395256925e-01 2.881920613636750339e-01
4.312128667328337661e-01 3.075205028292720133e-01
4.319997515261418397e-01 3.264411485719500572e-01
4.327866363194499688e-01 3.447956541683834253e-01
4.335735211127580424e-01 3.624354246395689039e-01
4.343604059060661160e-01 3.792105202555631216e-01
4.351472906993742451e-01 3.949652860949222077e-01
4.359341754926823187e-01 4.095444034239377196e-01
4.367210602859903923e-01 4.228177675890480991e-01
4.375079450792985214e-01 4.346586358140458461e-01
4.382948298726065950e-01 4.449557299585462644e-01
4.390817146659146686e-01 4.536172707708128193e-01
4.398685994592227977e-01 4.605793825811383968e-01
4.406554842525308713e-01 4.657892839150810094e-01
4.414423690458389449e-01 4.692273077901254474e-01
4.422292538391470740e-01 4.709033717444630618e-01
4.430161386324551476e-01 4.708396641686236617e-01
4.438030234257632212e-01 4.690955221978878598e-01
4.445899082190712948e-01 4.657455795094920248e-01
4.453767930123794239e-01 4.608878348282761106e-01
4.461636778056874975e-01 4.546476861795070157e-01
4.469505625989955711e-01 4.471503634945841466e-01
4.477374473923037002e-01 4.385422765322302130e-01
4.485243321856117737e-01 4.289787440261541018e-01
4.493112169789198473e-01 4.186216403709024370e-01
4.500981017722279764e-01 4.076338485242283483e-01
4.508849865655360500e-01 3.961632910896635273e-01
4.516718713588441236e-01 3.843779778879241604e-01
4.524587561521522527e-01 3.724126361539317198e-01
4.532456409454603263e-01 3.603943448516293557e-01
4.540325257387683999e-01 3.484484179593505537e-01
4.548194105320764735e-01 3.366720977795303327e-01
4.556062953253846026e-01 3.251464475798433451e-01
4.563931801186926762e-01 3.139450924743198978e-01
4.571800649120007498e-01 3.031050971607769373e-01
4.579669497053088789e-01 2.926462546921302366e-01
4.587538344986169525e-01 2.825838616103359957e-01
4.595407192919250261e-01 2.729115723718902320e-01
4.603276040852331552e-01 2.635992981744836872e-01
4.611144888785412288e-01 2.546100583672337159e-01
4.619013736718493024e-01 2.458956940570580230e-01
4.626882584651574315e-01 2.374000618921621175e-01
4.634751432584655051e-01 2.290601686956437177e-01
4.642620280517735787e-01 2.208101216713842518e-01
4.650489128450817078e-01 2.125906257075700356e-01
4.658357976383897814e-01 2.043352417030128709e-01
4.666226824316978550e-01 1.959940037555532033e-01
4.674095672250059286e-01 1.875130377806095705e-01
4.681964520183140577e-01 1.788659950644277963e-01
4.689833368116221313e-01 1.700240475087060332e-01
4.697702216049302049e-01 1.609736635570981900e-01