0.000000000000000000e+00 -2.685215488774106429e-02
7.868847933080908323e-04 1.362775646627691906e-01
1.573769586616181665e-03 1.362775646627691906e-01
2.360654379924272388e-03 1.362775646627691906e-01
3.147539173232363329e-03 1.362775646627691906e-01
3.934423966540453836e-03 1.362775646627691906e-01
4.721308759848544777e-03 1.362775646627691906e-01
5.508193553156635718e-03 1.362775646627691906e-01
6.295078346464726658e-03 1.362775646627691906e-01
7.081963139772817599e-03 1.362775646627691906e-01
7.868847933080907672e-03 1.362775646627691906e-01
8.655732726388998613e-03 1.362775646627691906e-01
9.442617519697089554e-03 1.362775646627691906e-01
1.022950231300518049e-02 1.362775646627691906e-01
1.101638710631327144e-02 1.362775646627691906e-01
1.180327189962136238e-02 1.362775646627691906e-01
1.259015669292945332e-02 1.362775646627691906e-01
1.337704148623754426e-02 1.362775646627691906e-01
1.416392627954563520e-02 1.362775646627691906e-01
1.495081107285372614e-02 1.362775646627691906e-01
1.573769586616181534e-02 1.362775646627691906e-01
1.652458065946990629e-02 1.362775646627691906e-01
1.731146545277799723e-02 1.362775646627691906e-01
1.809835024608608817e-02 1.362775646627691906e-01
1.888523503939417911e-02 1.362775646627691906e-01
1.967211983270227005e-02 1.362775646627691906e-01
2.045900462601036099e-02 1.362775646627691906e-01
2.124588941931845193e-02 1.362775646627691906e-01
2.203277421262654287e-02 1.362775646627691906e-01
2.281965900593463381e-02 1.362775646627691906e-01
2.360654379924272475e-02 1.362775646627691906e-01
2.439342859255081569e-02 1.362775646627691906e-01
2.518031338585890663e-02 1.362775646627691906e-01
2.596719817916699757e-02 1.362775646627691906e-01
2.675408297247508851e-02 1.362775646627691906e-01
2.754096776578317946e-02 1.362775646627691906e-01
2.832785255909127040e-02 1.362775646627691906e-01
2.911473735239936134e-02 1.362775646627691906e-01
2.990162214570745228e-02 1.362775646627691906e-01
3.068850693901554322e-02 1.362775646627691906e-01
3.147539173232363069e-02 1.362775646627691906e-01
3.226227652563172510e-02 1.362775646627691906e-01
3.304916131893981257e-02 1.362775646627691906e-01
3.383604611224790698e-02 1.362775646627691906e-01
3.462293090555599445e-02 1.362775646627691906e-01
3.540981569886408886e-02 1.362775646627691906e-01
3.619670049217217633e-02 1.362775646627691906e-01
3.698358528548027074e-02 1.362775646627691906e-01
3.777047007878835821e-02 1.362775646627691906e-01
3.855735487209645262e-02 1.362775646627691906e-01
3.934423966540454010e-02 1.362775646627691906e-01
4.013112445871263451e-02 1.362775646627691906e-01
4.091800925202072198e-02 1.362775646627691906e-01
4.170489404532881639e-02 1.362775646627691906e-01
4.249177883863690386e-02 1.362775646627691906e-01
4.327866363194499827e-02 1.362775646627691906e-01
4.406554842525308574e-02 1.362775646627691906e-01
4.485243321856118015e-02 1.362775646627691906e-01
4.563931801186926762e-02 1.362775646627691906e-01
4.642620280517736203e-02 1.362775646627691906e-01
4.721308759848544950e-02 1.362775646627691906e-01
4.799997239179354391e-02 1.362775646627691906e-01
4.878685718510163138e-02 1.362775646627691906e-01
4.957374197840972579e-02 1.362775646627691906e-01
5.036062677171781327e-02 1.362775646627691906e-01
5.114751156502590074e-02 1.362775646627691906e-01
5.193439635833399515e-02 1.362775646627691906e-01
5.272128115164208262e-02 1.362775646627691906e-01
5.350816594495017703e-02 1.362775646627691906e-01
5.429505073825826450e-02 1.362775646627691906e-01
5.508193553156635891e-02 1.362775646627691906e-01
5.586882032487444638e-02 1.362775646627691906e-01
5.665570511818254079e-02 1.362775646627691906e-01
5.744258991149062826e-02 1.362775646627691906e-01
5.822947470479872267e-02 1.362775646627691906e-01
5.901635949810681014e-02 1.362775646627691906e-01
5.980324429141490455e-02 1.362775646627691906e-01
6.059012908472299203e-02 1.362775646627691906e-01
6.137701387803108644e-02 1.362775646627691906e-01
6.216389867133917391e-02 1.362775646627691906e-01
6.295078346464726138e-02 1.362775646627691906e-01
6.373766825795536273e-02 1.362775646627691906e-01
6.452455305126345020e-02 1.362775646627691906e-01
6.531143784457153767e-02 1.362775646627691906e-01
6.609832263787962514e-02 1.362775646627691906e-01
6.688520743118772649e-02 1.362775646627691906e-01
6.767209222449581396e-02 1.362775646627691906e-01
6.845897701780390143e-02 1.362775646627691906e-01
6.924586181111198890e-02 1.362775646627691906e-01
7.003274660442009025e-02 1.362775646627691906e-01
7.081963139772817772e-02 1.362775646627691906e-01
7.160651619103626520e-02 1.362775646627691906e-01
7.239340098434435267e-02 1.362775646627691906e-01
7.318028577765245402e-02 1.362775646627691906e-01
7.396717057096054149e-02 1.362775646627691906e-01
7.475405536426862896e-02 1.362775646627691906e-01
7.554094015757671643e-02 1.362775646627691906e-01
7.632782495088480390e-02 1.362775646627691906e-01
7.711470974419290525e-02 1.362775646627691906e-01
7.790159453750099272e-02 1.362775646627691906e-01
7.868847933080908019e-02 1.362775646627691906e-01
7.947536412411716766e-02 1.362775646627691906e-01
8.026224891742526901e-02 1.362775646627691906e-01
8.104913371073335648e-02 1.362775646627691906e-01
8.183601850404144396e-02 1.362775646627691906e-01
8.262290329734953143e-02 1.362775646627691906e-01
8.340978809065763278e-02 1.362775646627691906e-01
8.419667288396572025e-02 1.362775646627691906e-01
8.498355767727380772e-02 1.362775646627691906e-01
8.577044247058189519e-02 1.362775646627691906e-01
8.655732726388999654e-02 1.362775646627691906e-01
8.734421205719808401e-02 1.362775646627691906e-01
8.813109685050617148e-02 1.362775646627691906e-01
8.891798164381425895e-02 1.362775646627691906e-01
8.970486643712236030e-02 1.362775646627691906e-01
9.049175123043044777e-02 1.362775646627691906e-01
9.127863602373853524e-02 1.362775646627691906e-01
9.206552081704662271e-02 1.362775646627691906e-01
9.285240561035472406e-02 1.362775646627691906e-01
9.363929040366281153e-02 1.362775646627691906e-01
9.442617519697089901e-02 1.362775646627691906e-01
9.521305999027898648e-02 1.362775646627691906e-01
9.599994478358708783e-02 1.362775646627691906e-01
9.678682957689517530e-02 1.362775646627691906e-01
9.757371437020326277e-02 1.362775646627691906e-01
9.836059916351135024e-02 1.362775646627691906e-01
9.914748395681945159e-02 1.362775646627691906e-01
9.993436875012753906e-02 1.362775646627691906e-01
1.007212535434356265e-01 1.362775646627691906e-01
1.015081383367437140e-01 1.362775646627691906e-01
1.022950231300518015e-01 1.362775646627691906e-01
1.030819079233599028e-01 1.362775646627691906e-01
1.038687927166679903e-01 1.362775646627691906e-01
1.046556775099760778e-01 1.362775646627691906e-01
1.054425623032841652e-01 1.362775646627691906e-01
1.062294470965922666e-01 1.362775646627691906e-01
1.070163318899003541e-01 1.362775646627691906e-01
1.078032166832084415e-01 1.362775646627691906e-01
1.085901014765165290e-01 1.362775646627691906e-01
1.093769862698246303e-01 1.362775646627691906e-01
1.101638710631327178e-01 1.362775646627691906e-01
1.109507558564408053e-01 1.362775646627691906e-01
1.117376406497488928e-01 1.362775646627691906e-01
1.125245254430569941e-01 1.362775646627691906e-01
1.133114102363650816e-01 1.362775646627691906e-01
1.140982950296731691e-01 1.362775646627691906e-01
1.148851798229812565e-01 1.362775646627691906e-01
1.156720646162893579e-01 1.362775646627691906e-01
1.164589494095974453e-01 1.362775646627691906e-01
1.172458342029055328e-01 1.362775646627691906e-01
1.180327189962136203e-01 1.362775646627691906e-01
1.188196037895217216e-01 1.362775646627691906e-01
1.196064885828298091e-01 1.362775646627691906e-01
1.203933733761378966e-01 1.362775646627691906e-01
1.211802581694459841e-01 1.362775646627691906e-01
1.219671429627540854e-01 1.362775646627691906e-01
1.227540277560621729e-01 1.362775646627691906e-01
1.235409125493702603e-01 1.362775646627691906e-01
1.243277973426783478e-01 1.362775646627691906e-01
1.251146821359864492e-01 1.362775646627691906e-01
1.259015669292945228e-01 1.362775646627691906e-01
1.266884517226026241e-01 1.362775646627691906e-01
1.274753365159107255e-01 1.362775646627691906e-01
1.282622213092187990e-01 1.362775646627691906e-01
1.290491061025269004e-01 1.362775646627691906e-01
1.298359908958349740e-01 1.362775646627691906e-01
1.306228756891430753e-01 1.362775646627691906e-01
1.314097604824511767e-01 1.362775646627691906e-01
1.321966452757592503e-01 1.362775646627691906e-01
1.329835300690673516e-01 1.362775646627691906e-01
1.337704148623754530e-01 1.362775646627691906e-01
1.345572996556835266e-01 1.362775646627691906e-01
1.353441844489916279e-01 1.362775646627691906e-01
1.361310692422997015e-01 1.362775646627691906e-01
1.369179540356078029e-01 1.362775646627691906e-01
1.377048388289159042e-01 1.362775646627691906e-01
1.384917236222239778e-01 1.362775646627691906e-01
1.392786084155320792e-01 1.362775646627691906e-01
1.400654932088401805e-01 1.362775646627691906e-01
1.408523780021482541e-01 1.362775646627691906e-01
1.416392627954563554e-01 1.362775646627691906e-01
1.424261475887644290e-01 1.362775646627691906e-01
1.432130323820725304e-01 1.362775646627691906e-01
1.439999171753806317e-01 1.362775646627691906e-01
1.447868019686887053e-01 1.362775646627691906e-01
1.455736867619968067e-01 1.362775646627691906e-01
1.463605715553049080e-01 1.362775646627691906e-01
1.471474563486129816e-01 1.362775646627691906e-01
1.479343411419210830e-01 1.362775646627691906e-01
1.487212259352291566e-01 1.362775646627691906e-01
1.495081107285372579e-01 1.362775646627691906e-01
1.502949955218453593e-01 1.362775646627691906e-01
1.510818803151534329e-01 1.362775646627691906e-01
1.518687651084615342e-01 1.362775646627691906e-01
1.526556499017696078e-01 1.362775646627691906e-01
1.534425346950777092e-01 1.362775646627691906e-01
1.542294194883858105e-01 1.362775646627691906e-01
1.550163042816938841e-01 1.362775646627691906e-01
1.558031890750019854e-01 1.362775646627691906e-01
1.565900738683100868e-01 1.362775646627691906e-01
1.573769586616181604e-01 1.362775646627691906e-01
1.581638434549262617e-01 1.362775646627691906e-01
1.589507282482343353e-01 1.362775646627691906e-01
1.597376130415424367e-01 1.362775646627691906e-01
1.605244978348505380e-01 1.362775646627691906e-01
1.613113826281586116e-01 1.362775646627691906e-01
1.620982674214667130e-01 1.362775646627691906e-01
1.628851522147748143e-01 1.362775646627691906e-01
1.636720370080828879e-01 1.362775646627691906e-01
1.644589218013909893e-01 1.362775646627691906e-01
1.652458065946990629e-01 1.362775646627691906e-01
1.660326913880071642e-01 1.362775646627691906e-01
1.668195761813152656e-01 1.362775646627691906e-01
1.676064609746233391e-01 1.362775646627691906e-01
1.683933457679314405e-01 1.362775646627691906e-01
1.691802305612395418e-01 1.362775646627691906e-01
1.699671153545476154e-01 1.362775646627691906e-01
1.707540001478557168e-01 1.362775646627691906e-01
1.715408849411637904e-01 1.362775646627691906e-01
1.723277697344718917e-01 1.362775646627691906e-01
1.731146545277799931e-01 1.362775646627691906e-01
1.739015393210880667e-01 1.362775646627691906e-01
1.746884241143961680e-01 1.362775646627691906e-01
1.754753089077042694e-01 1.362775646627691906e-01
1.762621937010123430e-01 1.362775646627691906e-01
1.770490784943204443e-01 1.362775646627691906e-01
1.778359632876285179e-01 1.362775646627691906e-01
1.786228480809366193e-01 1.362775646627691906e-01
1.794097328742447206e-01 1.362775646627691906e-01
1.801966176675527942e-01 1.362775646627691906e-01
1.809835024608608955e-01 1.362775646627691906e-01
1.817703872541689691e-01 1.362775646627691906e-01
1.825572720474770705e-01 1.362775646627691906e-01
1.833441568407851718e-01 1.362775646627691906e-01
1.841310416340932454e-01 1.362775646627691906e-01
1.849179264274013468e-01 1.362775646627691906e-01
1.857048112207094481e-01 1.362775646627691906e-01
1.864916960140175217e-01 1.362775646627691906e-01
1.872785808073256231e-01 1.362775646627691906e-01
1.880654656006336967e-01 1.362775646627691906e-01
1.888523503939417980e-01 1.362775646627691906e-01
1.896392351872498994e-01 1.362775646627691906e-01
1.904261199805579730e-01 1.362775646627691906e-01
1.912130047738660743e-01 1.362775646627691906e-01
1.919998895671741757e-01 1.362775646627691906e-01
1.927867743604822492e-01 1.362775646627691906e-01
1.935736591537903506e-01 1.362775646627691906e-01
1.943605439470984242e-01 1.362775646627691906e-01
1.951474287404065255e-01 1.362775646627691906e-01
1.959343135337146269e-01 1.362775646627691906e-01
1.967211983270227005e-01 1.362775646627691906e-01
1.975080831203308018e-01 1.362775646627691906e-01
1.982949679136389032e-01 1.362775646627691906e-01
1.990818527069469768e-01 1.362775646627691906e-01
1.998687375002550781e-01 1.362775646627691906e-01
2.006556222935631517e-01 1.362775646627691906e-01
2.014425070868712531e-01 1.362775646627691906e-01
2.022293918801793544e-01 1.362775646627691906e-01
2.030162766734874280e-01 1.362775646627691906e-01
2.038031614667955294e-01 1.362775646627691906e-01
2.045900462601036029e-01 1.362775646627691906e-01
2.053769310534117043e-01 1.362775646627691906e-01
2.061638158467198056e-01 1.362775646627691906e-01
2.069507006400278792e-01 1.362775646627691906e-01
2.077375854333359806e-01 1.362775646627691906e-01
2.085244702266440819e-01 1.362775646627691906e-01
2.093113550199521555e-01 1.362775646627691906e-01
2.100982398132602569e-01 1.362775646627691906e-01
2.108851246065683305e-01 1.362775646627691906e-01
2.116720093998764318e-01 1.362775646627691906e-01
2.124588941931845332e-01 1.362775646627691906e-01
2.132457789864926068e-01 1.362775646627691906e-01
2.140326637798007081e-01 1.362775646627691906e-01
2.148195485731088095e-01 1.362775646627691906e-01
2.156064333664168831e-01 1.362775646627691906e-01
2.163933181597249844e-01 1.362775646627691906e-01
2.171802029530330580e-01 1.362775646627691906e-01
2.179670877463411593e-01 1.362775646627691906e-01
2.187539725396492607e-01 1.362775646627691906e-01
2.195408573329573343e-01 1.362775646627691906e-01
2.203277421262654356e-01 1.362775646627691906e-01
2.211146269195735370e-01 1.362775646627691906e-01
2.219015117128816106e-01 1.362775646627691906e-01
2.226883965061897119e-01 1.362775646627691906e-01
2.234752812994977855e-01 1.362775646627691906e-01
2.242621660928058869e-01 1.362775646627691906e-01
2.250490508861139882e-01 1.362775646627691906e-01
2.258359356794220618e-01 1.362775646627691906e-01
2.266228204727301632e-01 1.362775646627691906e-01
2.274097052660382368e-01 1.362775646627691906e-01
2.281965900593463381e-01 1.362775646627691906e-01
2.289834748526544395e-01 1.362775646627691906e-01
2.297703596459625131e-01 1.362775646627691906e-01
2.305572444392706144e-01 1.362775646627691906e-01
2.313441292325787157e-01 1.362775646627691906e-01
2.321310140258867893e-01 1.362775646627691906e-01
2.329178988191948907e-01 1.362775646627691906e-01
2.337047836125029643e-01 1.362775646627691906e-01
2.344916684058110656e-01 1.362775646627691906e-01
2.352785531991191670e-01 1.362775646627691906e-01
2.360654379924272406e-01 1.362775646627691906e-01
2.368523227857353419e-01 1.362775646627691906e-01
2.376392075790434433e-01 1.362775646627691906e-01
2.384260923723515169e-01 1.362775646627691906e-01
2.392129771656596182e-01 1.362775646627691906e-01
2.399998619589676918e-01 1.362775646627691906e-01
2.407867467522757932e-01 1.362775646627691906e-01
2.415736315455838945e-01 1.362775646627691906e-01
2.423605163388919681e-01 1.362775646627691906e-01
2.431474011322000695e-01 1.362775646627691906e-01
2.439342859255081708e-01 1.362775646627691906e-01
2.447211707188162444e-01 1.362775646627691906e-01
2.455080555121243457e-01 1.362775646627691906e-01
2.462949403054324193e-01 1.362775646627691906e-01
2.470818250987405207e-01 1.362775646627691906e-01
2.478687098920486220e-01 1.362775646627691906e-01
2.486555946853566956e-01 1.362775646627691906e-01
2.494424794786647970e-01 1.362775646627691906e-01
2.502293642719728983e-01 1.362775646627691906e-01
2.510162490652809719e-01 1.362775646627691906e-01
2.518031338585890455e-01 1.362775646627694126e-01
2.525900186518971746e-01 1.362775646627696347e-01
2.533769034452052482e-01 1.362775646627705228e-01
2.541637882385133218e-01 1.362775646627718551e-01
2.549506730318214509e-01 1.362775646627760739e-01
2.557375578251295245e-01 1.362775646627827353e-01
2.565244426184375981e-01 1.362775646628040516e-01
2.573113274117457272e-01 1.362775646628360260e-01
2.580982122050538008e-01 1.362775646629308390e-01
2.588850969983618744e-01 1.362775646630733917e-01
2.596719817916699480e-01 1.362775646634610816e-01
2.604588665849780771e-01 1.362775646640403959e-01
2.612457513782861507e-01 1.362775646654956763e-01
2.620326361715942243e-01 1.362775646676632757e-01
2.628195209649023534e-01 1.362775646726896994e-01
2.636064057582104270e-01 1.362775646801666074e-01
2.643932905515185006e-01 1.362775646961942311e-01
2.651801753448266297e-01 1.362775647200606954e-01
2.659670601381347033e-01 1.362775647674776547e-01
2.667539449314427769e-01 1.362775648383032223e-01
2.675408297247509060e-01 1.362775649693517277e-01
2.683277145180589796e-01 1.362775651659577925e-01
2.691145993113670531e-01 1.362775655073227288e-01
2.699014841046751823e-01 1.362775660218131790e-01
2.706883688979832558e-01 1.362775668688016584e-01
2.714752536912913294e-01 1.362775681495564939e-01
2.722621384845994030e-01 1.362775701733813793e-01
2.730490232779075321e-01 1.362775732351944047e-01
2.738359080712156057e-01 1.362775779364806539e-01
2.746227928645236793e-01 1.362775850260102839e-01
2.754096776578318084e-01 1.362775957091826307e-01
2.761965624511398820e-01 1.362776117084780747e-01
2.769834472444479556e-01 1.362776355141186446e-01
2.777703320377560847e-01 1.362776708255095670e-01
2.785572168310641583e-01 1.362777228304294930e-01
2.793441016243722319e-01 1.362777991299859437e-01
2.801309864176803610e-01 1.362779103731694974e-01
2.809178712109884346e-01 1.362780717505027717e-01
2.817047560042965082e-01 1.362783045468016763e-01
2.824916407976045818e-01 1.362786384977761056e-01
2.832785255909127109e-01 1.362791149581330519e-01
2.840654103842207845e-01 1.362797909318502754e-01
2.848522951775288581e-01 1.362807446996254779e-01
2.856391799708369872e-01 1.362820829918056642e-01
2.864260647641450608e-01 1.362839504086545972e-01
2.872129495574531344e-01 1.362865417835359416e-01
2.879998343507612635e-01 1.362901177487023663e-01
2.887867191440693371e-01 1.362950249554351068e-01
2.895736039373774107e-01 1.363017214233581686e-01
2.903604887306855398e-01 1.363108083722401886e-01
2.911473735239936134e-01 1.363230700755486691e-01
2.919342583173016870e-01 1.363395226834900331e-01
2.927211431106098161e-01 1.363614743278014352e-01
2.935080279039178897e-01 1.363905976932824338e-01
2.942949126972259632e-01 1.364290171964832599e-01
2.950817974905340368e-01 1.364794129773687636e-01
2.958686822838421659e-01 1.365451426863220075e-01
2.966555670771502395e-01 1.366303837596394288e-01
2.974424518704583131e-01 1.367402968350042158e-01
2.982293366637664422e-01 1.368812124358138593e-01
2.990162214570745158e-01 1.370608394059344981e-01
2.998031062503825894e-01 1.372884966953848984e-01
3.005899910436907185e-01 1.375753657884086767e-01
3.013768758369987921e-01 1.379347618861590519e-01
3.021637606303068657e-01 1.383824160466733399e-01
3.029506454236149948e-01 1.389367741916911481e-01
3.037375302169230684e-01 1.396192822424420221e-01
3.045244150102311420e-01 1.404546792169121261e-01
3.053112998035392156e-01 1.414712521612668805e-01
3.060981845968473447e-01 1.427010767998608820e-01
3.068850693901554183e-01 1.441801879272630593e-01
3.076719541834634919e-01 1.459486995691081646e-01
3.084588389767716210e-01 1.480508355147716060e-01
3.092457237700796946e-01 1.505348623424687116e-01
3.100326085633877682e-01 1.534529272349383078e-01
3.108194933566958973e-01 1.568606797682388088e-01
3.116063781500039709e-01 1.608168950137811581e-01
3.123932629433120445e-01 1.653827762114230548e-01
3.131801477366201736e-01 1.706212745145996301e-01
3.139670325299282472e-01 1.765960187051494046e-01
3.147539173232363208e-01 1.833704274475769225e-01
3.155408021165444499e-01 1.910062122030433684e-01
3.163276869098525235e-01 1.995623318956265546e-01
3.171145717031605971e-01 2.090933277324455997e-01
3.179014564964686707e-01 2.196478051059185255e-01
3.186883412897767998e-01 2.312672832013544788e-01
3.194752260830848734e-01 2.439839625002753198e-01
3.202621108763929469e-01 2.578199368404101577e-01
3.210489956697010761e-01 2.727853548890184499e-01
3.218358804630091496e-01 2.888778002967529179e-01
3.226227652563172232e-01 3.060800644539125592e-01
3.234096500496253523e-01 3.243605667251128200e-01
3.241965348429334259e-01 3.436716945223419195e-01
3.249834196362414995e-01 3.639492359881575378e-01
3.257703044295496286e-01 3.851133885588926553e-01
3.265571892228577022e-01 4.070669939790456660e-01
3.273440740161657758e-01 4.296956643716811630e-01
3.281309588094738494e-01 4.528690849659029460e-01
3.289178436027819785e-01 4.764400475571171079e-01
3.297047283960900521e-01 5.002439882488938228e-01
3.304916131893981257e-01 5.241019711191201580e-01
3.312784979827062548e-01 5.478170742018440009e-01
3.320653827760143284e-01 5.711757342382162150e-01
3.328522675693224020e-01 5.939475785826224818e-01
3.336391523626305311e-01 6.158858454373525859e-01
3.344260371559386047e-01 6.367257869608577980e-01
3.352129219492466783e-01 6.561843330800158913e-01
3.359998067425548074e-01 6.739634533674832007e-01
3.367866915358628810e-01 6.897444418501956775e-01
3.375735763291709546e-01 7.031938002947357713e-01
3.383604611224790837e-01 7.139617253625238913e-01
3.391473459157871573e-01 7.216816043282154869e-01
3.399342307090952309e-01 7.259824540259069980e-01
3.407211155024033045e-01 7.264840461269743699e-01
3.415080002957114336e-01 7.228064884905287535e-01
3.422948850890195072e-01 7.145779574813284629e-01
3.430817698823275808e-01 7.014357065329850371e-01
3.438686546756357099e-01 6.830448926611394356e-01
3.446555394689437835e-01 6.591106792219338928e-01
3.454424242622518570e-01 6.293826063525698178e-01
3.462293090555599862e-01 5.936734174844853218e-01
3.470161938488680597e-01 5.518678002244725711e-01
3.478030786421761333e-01 5.039385233659721131e-01
3.485899634354842624e-01 4.499642548390443419e-01
3.493768482287923360e-01 3.901376302160157739e-01
3.501637330221004096e-01 3.247608822709211474e-01
3.509506178154085387e-01 2.542841663813273367e-01
3.517375026087166123e-01 1.792732865057435898e-01
3.525243874020246859e-01 1.004439863326238580e-01
3.533112721953327595e-01 1.862160675212898298e-02
3.540981569886408886e-01 -6.523470862693026007e-02
3.548850417819489622e-01 -1.500562189940355395e-01
3.556719265752570358e-01 -2.346982051104906652e-01
3.564588113685651649e-01 -3.179392969339510655e-01
3.572456961618732385e-01 -3.985228247098657750e-01
3.580325809551813121e-01 -4.751840501780366655e-01
3.588194657484894412e-01 -5.466824405952068755e-01
3.596063505417975148e-01 -6.118352875085917297e-01
3.603932353351055884e-01 -6.695469550888485388e-01
3.611801201284137175e-01 -7.188552740375491190e-01
3.619670049217217911e-01 -7.589466700352678341e-01
3.627538897150298647e-01 -7.891933124863318438e-01
3.635407745083379383e-01 -8.091741262522782474e-01
3.643276593016460674e-01 -8.186774811537358421e-01
3.651145440949541410e-01 -8.177415344986609380e-01
3.659014288882622146e-01 -8.066105266767489290e-01
3.666883136815703437e-01 -7.857662987596185644e-01
3.674751984748784173e-01 -7.558997165433110066e-01
3.682620832681864909e-01 -7.178815062622529997e-01
3.690489680614946200e-01 -6.727661207482127370e-01
3.698358528548026936e-01 -6.217108862799600733e-01
3.706227376481107672e-01 -5.659889878345425451e-01
3.714096224414188963e-01 -5.069343763221633159e-01
3.721965072347269698e-01 -4.458848688119814163e-01
3.729833920280350434e-01 -3.841637422536042790e-01
3.737702768213431725e-01 -3.230326251706783225e-01
3.745571616146512461e-01 -2.636654851348709805e-01
3.753440464079593197e-01 -2.071108076456487090e-01
3.761309312012673933e-01 -1.542743665088432969e-01
3.769178159945755224e-01 -1.059038432477618086e-01
3.777047007878835960e-01 -6.256722704119321854e-02
3.784915855811916696e-01 -2.466878364083580077e-02
3.792784703744997987e-01 7.576831084321389298e-03
3.800653551678078723e-01 3.411044809286578605e-02
3.808522399611159459e-01 5.503460464406373376e-02
3.816391247544240750e-01 7.058816212384577682e-02
3.824260095477321486e-01 8.112882428257117695e-02
3.832128943410402222e-01 8.710842743648283815e-02
3.839997791343483513e-01 8.905428204839860307e-02
3.847866639276564249e-01 8.753521776644590524e-02
3.855735487209644985e-01 8.315485966935609596e-02
3.863604335142725721e-01 7.651834568066839815e-02
3.871473183075807012e-01 6.821249149234920317e-02
3.879342031008887748e-01 5.881318669496704565e-02
3.887210878941968484e-01 4.882185529572158345e-02
3.895079726875049775e-01 3.871722862968041134e-02
3.902948574808130511e-01 2.889819344477628782e-02
3.910817422741211247e-01 1.970345888432412096e-02
3.918686270674292538e-01 1.140819460966668863e-02
3.926555118607373274e-01 4.216802763866711601e-03
3.934423966540454010e-01 -1.722457861809023605e-03
3.942292814473535301e-01 -6.326212709005796242e-03
3.950161662406616037e-01 -9.553278780149554450e-03
3.958030510339696773e-01 -1.140533701391666099e-02
3.965899358272778064e-01 -1.193752219889643307e-02
3.973768206205858800e-01 -1.122177851044292574e-02
3.981637054138939535e-01 -9.367366962528711483e-03
3.989505902072020271e-01 -6.502038894567685468e-03
3.997374750005101562e-01 -2.744804764856056956e-03
4.005243597938182298e-01 1.773222209839220298e-03
4.013112445871263034e-01 6.902102299574552902e-03
4.020981293804344325e-01 1.251946316870045095e-02
4.028850141737425061e-01 1.849150209856786908e-02
4.036718989670505797e-01 2.469719150446869627e-02
4.044587837603587088e-01 3.104273500825427412e-02
4.052456685536667824e-01 3.742324203651103964e-02
4.060325533469748560e-01 4.374995902711975582e-02
4.068194381402829851e-01 4.995598462075578894e-02
4.076063229335910587e-01 5.598114121280062250e-02
4.083932077268991323e-01 6.178105202219441594e-02
4.091800925202072059e-01 6.731201264334840673e-02
4.099669773135153350e-01 7.254948137158545585e-02
4.107538621068234086e-01 7.748034688522897895e-02
4.115407469001314822e-01 8.209385117674949939e-02
4.123276316934396113e-01 8.638528761785280174e-02
4.131145164867476849e-01 9.035768189815640561e-02
4.139014012800557585e-01 9.402817959216047683e-02
4.146882860733638876e-01 9.740854727060099805e-02
4.154751708666719612e-01 1.005313951438018272e-01
4.162620556599800348e-01 1.034222734796454990e-01
4.170489404532881639e-01 1.061037068563974728e-01
4.178358252465962375e-01 1.086146930513525177e-01
4.186227100399043111e-01 1.110096944776288730e-01
4.194095948332124402e-01 1.133145975908451675e-01
4.201964796265205138e-01 1.155842009918546243e-01
4.209833644198285874e-01 1.178729670937763707e-01
4.217702492131366609e-01 1.202252726776698033e-01
4.225571340064447901e-01 1.226992782217417588e-01
4.233440187997528636e-01 1.253491099513754925e-01
4.241309035930609372e-01 1.282211617740425247e-01
4.249177883863690663e-01 1.313685513519200487e-01
4.257046731796771399e-01 1.348430515962446563e-01
4.264915579729852135e-01 1.386890392880752998e-01
4.272784427662933426e-01 1.429401332009425651e-01
4.280653275596014162e-01 1.476316330470526239e-01
4.288522123529094898e-01 1.527894252820236609e-01
4.296390971462176189e-01 1.584205698482969993e-01
4.304259819395256925e-01 1.645401951939609031e-01
4.312128667328337661e-01 1.711392242501625915e-01
4.319997515261418397e-01 1.782082437603136338e-01
4.327866363194499688e-01 1.857196863301191492e-01
4.335735211127580424e-01 1.936285028030493294e-01
4.343604059060661160e-01 2.019007382178386045e-01
4.351472906993742451e-01 2.104772235330742980e-01
4.359341754926823187e-01 2.192839974469902309e-01
4.367210602859903923e-01 2.282602099794976969e-01
4.375079450792985214e-01 2.373255122618593838e-01
4.382948298726065950e-01 2.463935040461033843e-01
4.390817146659146686e-01 2.553841726512284804e-01
4.398685994592227977e-01 2.642074197641743893e-01
4.406554842525308713e-01 2.727781898879100275e-01
4.414423690458389449e-01 2.810094103989926317e-01
4.422292538391470740e-01 2.888281285588623071e-01
4.430161386324551476e-01 2.961613916289589366e-01
4.438030234257632212e-01 3.029466686905168959e-01
4.445899082190712948e-01 3.091281525794760121e-01
4.453767930123794239e-01 3.146533980091299476e-01
4.461636778056874975e-01 3.194904671446248123e-01
4.469505625989955711e-01 3.236168354076958131e-01
4.477374473923037002e-01 3.270224171662836632e-01
4.485243321856117737e-01 3.297152809260357476e-01
4.493112169789198473e-01 3.316987885643052358e-01
4.500981017722279764e-01 3.329991627244452967e-01
4.508849865655360500e-01 3.336611163752507547e-01
4.516718713588441236e-01 3.337253282326930748e-01
4.524587561521522527e-01 3.332519759013907734e-01
4.532456409454603263e-01 3.323086331161393403e-01
4.540325257387683999e-01 3.309776658720868792e-01
4.548194105320764735e-01 3.293290012181762094e-01
4.556062953253846026e-01 3.274443327740850229e-01
4.563931801186926762e-01 3.254325853660504642e-01
4.571800649120007498e-01 3.233586432269854871e-01
4.579669497053088789e-01 3.213263883670975929e-01
4.587538344986169525e-01 3.194195315324765971e-01
4.595407192919250261e-01 3.177211110937414595e-01
4.603276040852331552e-01 3.162966836592757680e-01
4.611144888785412288e-01 3.152195381553748454e-01
4.619013736718493024e-01 3.145535502517458060e-01
4.626882584651574315e-01 3.143279682813595599e-01
4.634751432584655051e-01 3.145747300790697754e-01
4.642620280517735787e-01 3.153116535948470300e-01
4.650489128450817078e-01 3.165454625833976632e-01
4.658357976383897814e-01 3.182516153400447578e-01
4.666226824316978550e-01 3.203877522101401532e-01
4.674095672250059286e-01 3.229094964126246747e-01
4.681964520183140577e-01 3.257593598447618977e-01
4.689833368116221313e-01 3.288405204387854219e-01
4.697702216049302049e-01 3.320558199391936416e-01
4.705571063982383340e-01 3.353033934621907353e-01