0.000000000000000000e+00 -1.485117068345720437e-01
7.872486987158176753e-04 -5.421699576773486573e-02
1.574497397431635351e-03 -5.421699576773486573e-02
2.361746096147452918e-03 -5.421699576773486573e-02
3.148994794863270701e-03 -5.421699576773486573e-02
3.936243493579088051e-03 -5.421699576773486573e-02
4.723492192294905835e-03 -5.421699576773486573e-02
5.510740891010723619e-03 -5.421699576773486573e-02
6.297989589726541403e-03 -5.421699576773486573e-02
7.085238288442359186e-03 -5.421699576773486573e-02
7.872486987158176103e-03 -5.421699576773486573e-02
8.659735685873994754e-03 -5.421699576773486573e-02
9.446984384589811670e-03 -5.421699576773486573e-02
1.023423308330563032e-02 -5.421699576773486573e-02
1.102148178202144724e-02 -5.421699576773486573e-02
1.180873048073726589e-02 -5.421699576773486573e-02
1.259597917945308281e-02 -5.421699576773486573e-02
1.338322787816889972e-02 -5.421699576773486573e-02
1.417047657688471837e-02 -5.421699576773486573e-02
1.495772527560053529e-02 -5.421699576773486573e-02
1.574497397431635221e-02 -5.421699576773486573e-02
1.653222267303217086e-02 -5.421699576773486573e-02
1.731947137174798951e-02 -5.421699576773486573e-02
1.810672007046380816e-02 -5.421699576773486573e-02
1.889396876917962334e-02 -5.421699576773486573e-02
1.968121746789544199e-02 -5.421699576773486573e-02
2.046846616661126064e-02 -5.421699576773486573e-02
2.125571486532707582e-02 -5.421699576773486573e-02
2.204296356404289448e-02 -5.421699576773486573e-02
2.283021226275871313e-02 -5.421699576773486573e-02
2.361746096147453178e-02 -5.421699576773486573e-02
2.440470966019034696e-02 -5.421699576773486573e-02
2.519195835890616561e-02 -5.421699576773486573e-02
2.597920705762198426e-02 -5.421699576773486573e-02
2.676645575633779944e-02 -5.421699576773486573e-02
2.755370445505361809e-02 -5.421699576773486573e-02
2.834095315376943675e-02 -5.421699576773486573e-02
2.912820185248525540e-02 -5.421699576773486573e-02
2.991545055120107058e-02 -5.421699576773486573e-02
3.070269924991688923e-02 -5.421699576773486573e-02
3.148994794863270441e-02 -5.421699576773486573e-02
3.227719664734852306e-02 -5.421699576773486573e-02
3.306444534606434171e-02 -5.421699576773486573e-02
3.385169404478016036e-02 -5.421699576773486573e-02
3.463894274349597902e-02 -5.421699576773486573e-02
3.542619144221179767e-02 -5.421699576773486573e-02
3.621344014092761632e-02 -5.421699576773486573e-02
3.700068883964342803e-02 -5.421699576773486573e-02
3.778793753835924668e-02 -5.421699576773486573e-02
3.857518623707506533e-02 -5.421699576773486573e-02
3.936243493579088398e-02 -5.421699576773486573e-02
4.014968363450670263e-02 -5.421699576773486573e-02
4.093693233322252129e-02 -5.421699576773486573e-02
4.172418103193833994e-02 -5.421699576773486573e-02
4.251142973065415165e-02 -5.421699576773486573e-02
4.329867842936997030e-02 -5.421699576773486573e-02
4.408592712808578895e-02 -5.421699576773486573e-02
4.487317582680160760e-02 -5.421699576773486573e-02
4.566042452551742625e-02 -5.421699576773486573e-02
4.644767322423324490e-02 -5.421699576773486573e-02
4.723492192294906356e-02 -5.421699576773486573e-02
4.802217062166487527e-02 -5.421699576773486573e-02
4.880941932038069392e-02 -5.421699576773486573e-02
4.959666801909651257e-02 -5.421699576773486573e-02
5.038391671781233122e-02 -5.421699576773486573e-02
5.117116541652814987e-02 -5.421699576773486573e-02
5.195841411524396852e-02 -5.421699576773486573e-02
5.274566281395978717e-02 -5.421699576773486573e-02
5.353291151267559889e-02 -5.421699576773486573e-02
5.432016021139141754e-02 -5.421699576773486573e-02
5.510740891010723619e-02 -5.421699576773486573e-02
5.589465760882305484e-02 -5.421699576773486573e-02
5.668190630753887349e-02 -5.421699576773486573e-02
5.746915500625469214e-02 -5.421699576773486573e-02
5.825640370497051079e-02 -5.421699576773486573e-02
5.904365240368632251e-02 -5.421699576773486573e-02
5.983090110240214116e-02 -5.421699576773486573e-02
6.061814980111795981e-02 -5.421699576773486573e-02
6.140539849983377846e-02 -5.421699576773486573e-02
6.219264719854959711e-02 -5.421699576773486573e-02
6.297989589726540882e-02 -5.421699576773486573e-02
6.376714459598123441e-02 -5.421699576773486573e-02
6.455439329469704612e-02 -5.421699576773486573e-02
6.534164199341287171e-02 -5.421699576773486573e-02
6.612889069212868343e-02 -5.421699576773486573e-02
6.691613939084450902e-02 -5.421699576773486573e-02
6.770338808956032073e-02 -5.421699576773486573e-02
6.849063678827613244e-02 -5.421699576773486573e-02
6.927788548699195803e-02 -5.421699576773486573e-02
7.006513418570776974e-02 -5.421699576773486573e-02
7.085238288442359533e-02 -5.421699576773486573e-02
7.163963158313940705e-02 -5.421699576773486573e-02
7.242688028185523264e-02 -5.421699576773486573e-02
7.321412898057104435e-02 -5.421699576773486573e-02
7.400137767928685606e-02 -5.421699576773486573e-02
7.478862637800268165e-02 -5.421699576773486573e-02
7.557587507671849336e-02 -5.421699576773486573e-02
7.636312377543431895e-02 -5.421699576773486573e-02
7.715037247415013066e-02 -5.421699576773486573e-02
7.793762117286595625e-02 -5.421699576773486573e-02
7.872486987158176797e-02 -5.421699576773486573e-02
7.951211857029757968e-02 -5.421699576773486573e-02
8.029936726901340527e-02 -5.421699576773486573e-02
8.108661596772921698e-02 -5.421699576773486573e-02
8.187386466644504257e-02 -5.421699576773486573e-02
8.266111336516085428e-02 -5.421699576773486573e-02
8.344836206387667987e-02 -5.421699576773486573e-02
8.423561076259249158e-02 -5.421699576773486573e-02
8.502285946130830330e-02 -5.421699576773486573e-02
8.581010816002412889e-02 -5.421699576773486573e-02
8.659735685873994060e-02 -5.421699576773486573e-02
8.738460555745576619e-02 -5.421699576773486573e-02
8.817185425617157790e-02 -5.421699576773486573e-02
8.895910295488740349e-02 -5.421699576773486573e-02
8.974635165360321520e-02 -5.421699576773486573e-02
9.053360035231902692e-02 -5.421699576773486573e-02
9.132084905103485251e-02 -5.421699576773486573e-02
9.210809774975066422e-02 -5.421699576773486573e-02
9.289534644846648981e-02 -5.421699576773486573e-02
9.368259514718230152e-02 -5.421699576773486573e-02
9.446984384589812711e-02 -5.421699576773486573e-02
9.525709254461393882e-02 -5.421699576773486573e-02
9.604434124332975053e-02 -5.421699576773486573e-02
9.683158994204557612e-02 -5.421699576773486573e-02
9.761883864076138784e-02 -5.421699576773486573e-02
9.840608733947721343e-02 -5.421699576773486573e-02
9.919333603819302514e-02 -5.421699576773486573e-02
9.998058473690885073e-02 -5.421699576773486573e-02
1.007678334356246624e-01 -5.421699576773486573e-02
1.015550821343404742e-01 -5.421699576773486573e-02
1.023423308330562997e-01 -5.421699576773486573e-02
1.031295795317721115e-01 -5.421699576773486573e-02
1.039168282304879370e-01 -5.421699576773486573e-02
1.047040769292037488e-01 -5.421699576773486573e-02
1.054913256279195743e-01 -5.421699576773486573e-02
1.062785743266353861e-01 -5.421699576773486573e-02
1.070658230253511978e-01 -5.421699576773486573e-02
1.078530717240670234e-01 -5.421699576773486573e-02
1.086403204227828351e-01 -5.421699576773486573e-02
1.094275691214986607e-01 -5.421699576773486573e-02
1.102148178202144724e-01 -5.421699576773486573e-02
1.110020665189302980e-01 -5.421699576773486573e-02
1.117893152176461097e-01 -5.421699576773486573e-02
1.125765639163619214e-01 -5.421699576773486573e-02
1.133638126150777470e-01 -5.421699576773486573e-02
1.141510613137935587e-01 -5.421699576773486573e-02
1.149383100125093843e-01 -5.421699576773486573e-02
1.157255587112251960e-01 -5.421699576773486573e-02
1.165128074099410216e-01 -5.421699576773486573e-02
1.173000561086568333e-01 -5.421699576773486573e-02
1.180873048073726450e-01 -5.421699576773486573e-02
1.188745535060884706e-01 -5.421699576773486573e-02
1.196618022048042823e-01 -5.421699576773486573e-02
1.204490509035201079e-01 -5.421699576773486573e-02
1.212362996022359196e-01 -5.421699576773486573e-02
1.220235483009517452e-01 -5.421699576773486573e-02
1.228107969996675569e-01 -5.421699576773486573e-02
1.235980456983833686e-01 -5.421699576773486573e-02
1.243852943970991942e-01 -5.421699576773486573e-02
1.251725430958150198e-01 -5.421699576773486573e-02
1.259597917945308176e-01 -5.421699576773486573e-02
1.267470404932466432e-01 -5.421699576773486573e-02
1.275342891919624688e-01 -5.421699576773486573e-02
1.283215378906782944e-01 -5.421699576773486573e-02
1.291087865893940922e-01 -5.421699576773486573e-02
1.298960352881099178e-01 -5.421699576773486573e-02
1.306832839868257434e-01 -5.421699576773486573e-02
1.314705326855415413e-01 -5.421699576773486573e-02
1.322577813842573669e-01 -5.421699576773486573e-02
1.330450300829731924e-01 -5.421699576773486573e-02
1.338322787816890180e-01 -5.421699576773486573e-02
1.346195274804048159e-01 -5.421699576773486573e-02
1.354067761791206415e-01 -5.421699576773486573e-02
1.361940248778364670e-01 -5.421699576773486573e-02
1.369812735765522649e-01 -5.421699576773486573e-02
1.377685222752680905e-01 -5.421699576773486573e-02
1.385557709739839161e-01 -5.421699576773486573e-02
1.393430196726997417e-01 -5.421699576773486573e-02
1.401302683714155395e-01 -5.421699576773486573e-02
1.409175170701313651e-01 -5.421699576773486573e-02
1.417047657688471907e-01 -5.421699576773486573e-02
1.424920144675629885e-01 -5.421699576773486573e-02
1.432792631662788141e-01 -5.421699576773486573e-02
1.440665118649946397e-01 -5.421699576773486573e-02
1.448537605637104653e-01 -5.421699576773486573e-02
1.456410092624262631e-01 -5.421699576773486573e-02
1.464282579611420887e-01 -5.421699576773486573e-02
1.472155066598579143e-01 -5.421699576773486573e-02
1.480027553585737121e-01 -5.421699576773486573e-02
1.487900040572895377e-01 -5.421699576773486573e-02
1.495772527560053633e-01 -5.421699576773486573e-02
1.503645014547211889e-01 -5.421699576773486573e-02
1.511517501534369867e-01 -5.421699576773486573e-02
1.519389988521528123e-01 -5.421699576773486573e-02
1.527262475508686379e-01 -5.421699576773486573e-02
1.535134962495844357e-01 -5.421699576773486573e-02
1.543007449483002613e-01 -5.421699576773486573e-02
1.550879936470160869e-01 -5.421699576773486573e-02
1.558752423457319125e-01 -5.421699576773486573e-02
1.566624910444477103e-01 -5.421699576773486573e-02
1.574497397431635359e-01 -5.421699576773486573e-02
1.582369884418793615e-01 -5.421699576773486573e-02
1.590242371405951594e-01 -5.421699576773486573e-02
1.598114858393109849e-01 -5.421699576773486573e-02
1.605987345380268105e-01 -5.421699576773486573e-02
1.613859832367426361e-01 -5.421699576773486573e-02
1.621732319354584340e-01 -5.421699576773486573e-02
1.629604806341742596e-01 -5.421699576773486573e-02
1.637477293328900851e-01 -5.421699576773486573e-02
1.645349780316058830e-01 -5.421699576773486573e-02
1.653222267303217086e-01 -5.421699576773486573e-02
1.661094754290375342e-01 -5.421699576773486573e-02
1.668967241277533597e-01 -5.421699576773486573e-02
1.676839728264691576e-01 -5.421699576773486573e-02
1.684712215251849832e-01 -5.421699576773486573e-02
1.692584702239008088e-01 -5.421699576773486573e-02
1.700457189226166066e-01 -5.421699576773486573e-02
1.708329676213324322e-01 -5.421699576773486573e-02
1.716202163200482578e-01 -5.421699576773486573e-02
1.724074650187640834e-01 -5.421699576773486573e-02
1.731947137174798812e-01 -5.421699576773486573e-02
1.739819624161957068e-01 -5.421699576773486573e-02
1.747692111149115324e-01 -5.421699576773486573e-02
1.755564598136273302e-01 -5.421699576773486573e-02
1.763437085123431558e-01 -5.421699576773486573e-02
1.771309572110589814e-01 -5.421699576773486573e-02
1.779182059097748070e-01 -5.421699576773486573e-02
1.787054546084906048e-01 -5.421699576773486573e-02
1.794927033072064304e-01 -5.421699576773486573e-02
1.802799520059222560e-01 -5.421699576773486573e-02
1.810672007046380538e-01 -5.421699576773486573e-02
1.818544494033538794e-01 -5.421699576773486573e-02
1.826416981020697050e-01 -5.421699576773486573e-02
1.834289468007855306e-01 -5.421699576773486573e-02
1.842161954995013284e-01 -5.421699576773486573e-02
1.850034441982171540e-01 -5.421699576773486573e-02
1.857906928969329796e-01 -5.421699576773486573e-02
1.865779415956487775e-01 -5.421699576773486573e-02
1.873651902943646030e-01 -5.421699576773486573e-02
1.881524389930804286e-01 -5.421699576773486573e-02
1.889396876917962542e-01 -5.421699576773486573e-02
1.897269363905120521e-01 -5.421699576773486573e-02
1.905141850892278776e-01 -5.421699576773486573e-02
1.913014337879437032e-01 -5.421699576773486573e-02
1.920886824866595011e-01 -5.421699576773486573e-02
1.928759311853753267e-01 -5.421699576773486573e-02
1.936631798840911522e-01 -5.421699576773486573e-02
1.944504285828069778e-01 -5.421699576773486573e-02
1.952376772815227757e-01 -5.421699576773486573e-02
1.960249259802386013e-01 -5.421699576773486573e-02
1.968121746789544269e-01 -5.421699576773486573e-02
1.975994233776702247e-01 -5.421699576773486573e-02
1.983866720763860503e-01 -5.421699576773486573e-02
1.991739207751018759e-01 -5.421699576773486573e-02
1.999611694738177015e-01 -5.421699576773486573e-02
2.007484181725334993e-01 -5.421699576773486573e-02
2.015356668712493249e-01 -5.421699576773486573e-02
2.023229155699651505e-01 -5.421699576773486573e-02
2.031101642686809483e-01 -5.421699576773486573e-02
2.038974129673967739e-01 -5.421699576773486573e-02
2.046846616661125995e-01 -5.421699576773486573e-02
2.054719103648284251e-01 -5.421699576773486573e-02
2.062591590635442229e-01 -5.421699576773486573e-02
2.070464077622600485e-01 -5.421699576773486573e-02
2.078336564609758741e-01 -5.421699576773486573e-02
2.086209051596916719e-01 -5.421699576773486573e-02
2.094081538584074975e-01 -5.421699576773486573e-02
2.101954025571233231e-01 -5.421699576773486573e-02
2.109826512558391487e-01 -5.421699576773486573e-02
2.117698999545549465e-01 -5.421699576773486573e-02
2.125571486532707721e-01 -5.421699576773486573e-02
2.133443973519865977e-01 -5.421699576773486573e-02
2.141316460507023955e-01 -5.421699576773486573e-02
2.149188947494182211e-01 -5.421699576773486573e-02
2.157061434481340467e-01 -5.421699576773486573e-02
2.164933921468498723e-01 -5.421699576773486573e-02
2.172806408455656701e-01 -5.421699576773486573e-02
2.180678895442814957e-01 -5.421699576773486573e-02
2.188551382429973213e-01 -5.421699576773486573e-02
2.196423869417131192e-01 -5.421699576773486573e-02
2.204296356404289448e-01 -5.421699576773486573e-02
2.212168843391447703e-01 -5.421699576773486573e-02
2.220041330378605959e-01 -5.421699576773486573e-02
2.227913817365763938e-01 -5.421699576773486573e-02
2.235786304352922194e-01 -5.421699576773486573e-02
2.243658791340080449e-01 -5.421699576773486573e-02
2.251531278327238428e-01 -5.421699576773486573e-02
2.259403765314396684e-01 -5.421699576773486573e-02
2.267276252301554940e-01 -5.421699576773486573e-02
2.275148739288713196e-01 -5.421699576773486573e-02
2.283021226275871174e-01 -5.421699576773486573e-02
2.290893713263029430e-01 -5.421699576773486573e-02
2.298766200250187686e-01 -5.421699576773486573e-02
2.306638687237345664e-01 -5.421699576773486573e-02
2.314511174224503920e-01 -5.421699576773486573e-02
2.322383661211662176e-01 -5.421699576773486573e-02
2.330256148198820432e-01 -5.421699576773486573e-02
2.338128635185978410e-01 -5.421699576773486573e-02
2.346001122173136666e-01 -5.421699576773486573e-02
2.353873609160294922e-01 -5.421699576773486573e-02
2.361746096147452900e-01 -5.421699576773486573e-02
2.369618583134611156e-01 -5.421699576773486573e-02
2.377491070121769412e-01 -5.421699576773486573e-02
2.385363557108927668e-01 -5.421699576773486573e-02
2.393236044096085646e-01 -5.421699576773486573e-02
2.401108531083243902e-01 -5.421699576773475471e-02
2.408981018070402158e-01 -5.421699576773419960e-02
2.416853505057560136e-01 -5.421699576773364448e-02
2.424725992044718392e-01 -5.421699576772820439e-02
2.432598479031876648e-01 -5.421699576772354146e-02
2.440470966019034904e-01 -5.421699576767524675e-02
2.448343453006192882e-01 -5.421699576763694406e-02
2.456215939993351138e-01 -5.421699576725835801e-02
2.464088426980509394e-01 -5.421699576696370482e-02
2.471960913967667373e-01 -5.421699576427463363e-02
2.479833400954825628e-01 -5.421699576221017391e-02
2.487705887941983884e-01 -5.421699574484661888e-02
2.495578374929142140e-01 -5.421699573166882669e-02
2.503450861916300396e-01 -5.421699562968385067e-02
2.511323348903458652e-01 -5.421699555305037332e-02
2.519195835890616353e-01 -5.421699500809729066e-02
2.527068322877774609e-01 -5.421699460195228415e-02
2.534940809864932865e-01 -5.421699195347984279e-02
2.542813296852091121e-01 -5.421698999194013435e-02
2.550685783839249376e-01 -5.421697829315008654e-02
2.558558270826407632e-01 -5.421696966367228754e-02
2.566430757813565888e-01 -5.421692275178380260e-02
2.574303244800723589e-01 -5.421688819820813521e-02
2.582175731787881845e-01 -5.421671771893277203e-02
2.590048218775040101e-01 -5.421659194431249773e-02
2.597920705762198357e-01 -5.421603182190293246e-02
2.605793192749356613e-01 -5.421561633308491501e-02
2.613665679736514869e-01 -5.421395762679426245e-02
2.621538166723673124e-01 -5.421271466124200078e-02
2.629410653710830825e-01 -5.420830506299301188e-02
2.637283140697989081e-01 -5.420494656735197481e-02
2.645155627685147337e-01 -5.419447559227652533e-02
2.653028114672305593e-01 -5.418630479379793474e-02
2.660900601659463849e-01 -5.416423268433068205e-02
2.668773088646622105e-01 -5.414639528233544663e-02
2.676645575633780361e-01 -5.410539262741731470e-02
2.684518062620938061e-01 -5.407056572373347691e-02
2.692390549608096317e-01 -5.400394087010207400e-02
2.700263036595254573e-01 -5.394325082974449348e-02
2.708135523582412829e-01 -5.384897691669154884e-02
2.716008010569571085e-01 -5.375442619428805191e-02
2.723880497556729341e-01 -5.363720441419272955e-02
2.731752984543887597e-01 -5.350412631538914443e-02
2.739625471531045298e-01 -5.336967417335591879e-02
2.747497958518203554e-01 -5.319578540815228518e-02
2.755370445505361809e-01 -5.303597247020053196e-02
2.763242932492520065e-01 -5.281459452838110913e-02
2.771115419479678321e-01 -5.259473965402583495e-02
2.778987906466836577e-01 -5.230578075914604774e-02
2.786860393453994833e-01 -5.197361858122817591e-02
2.794732880441152534e-01 -5.158217351388749705e-02
2.802605367428310790e-01 -5.110110483789498392e-02
2.810477854415469046e-01 -5.056919647197655188e-02
2.818350341402627302e-01 -4.994165686752749522e-02
2.826222828389785557e-01 -4.924176310357653019e-02
2.834095315376943813e-01 -4.848275084708264515e-02
2.841967802364102069e-01 -4.759320131881183968e-02
2.849840289351259770e-01 -4.667541893229798511e-02
2.857712776338418026e-01 -4.556009841224772927e-02
2.865585263325576282e-01 -4.441060649055350584e-02
2.873457750312734538e-01 -4.301750335064347119e-02
2.881330237299892794e-01 -4.158372816942546013e-02
2.889202724287051050e-01 -3.988195532851868119e-02
2.897075211274209305e-01 -3.815986310558583394e-02
2.904947698261367006e-01 -3.617301992570343128e-02
2.912820185248525262e-01 -3.413297364728362648e-02
2.920692672235683518e-01 -3.191128563594813894e-02
2.928565159222841774e-01 -2.946271618526108416e-02
2.936437646210000030e-01 -2.701595817478308348e-02
2.944310133197158286e-01 -2.413871979027015779e-02
2.952182620184316542e-01 -2.142023417373051242e-02
2.960055107171474242e-01 -1.827169644697523854e-02
2.967927594158632498e-01 -1.524857635846676995e-02
2.975800081145790754e-01 -1.201534656775027354e-02
2.983672568132949010e-01 -8.754823639570252780e-03
2.991545055120107266e-01 -5.471903671105282640e-03
2.999417542107265522e-01 -2.149027845759876598e-03
3.007290029094423778e-01 1.165525771851694259e-03
3.015162516081581479e-01 4.356913029943010329e-03
3.023035003068739734e-01 7.483528279023987650e-03
3.030907490055897990e-01 1.039743530623593593e-02
3.038779977043056246e-01 1.303104945099820000e-02
3.046652464030214502e-01 1.547518579241957681e-02
3.054524951017372758e-01 1.743019855329230872e-02
3.062397438004531014e-01 1.905519352987350423e-02
3.070269924991688715e-01 2.014640974171011401e-02
3.078142411978846971e-01 2.060268432984080356e-02
3.086014898966005227e-01 2.049392846910813581e-02
3.093887385953163482e-01 1.962948373699391347e-02
3.101759872940321738e-01 1.799689575864182878e-02
3.109632359927479994e-01 1.564700060688450911e-02
3.117504846914638250e-01 1.230783918170397229e-02
3.125377333901795951e-01 8.096038138351469016e-03
3.133249820888954207e-01 2.876914292973875575e-03
3.141122307876112463e-01 -3.422638145870404713e-03
3.148994794863270719e-01 -1.070395645394961459e-02
3.156867281850428975e-01 -1.897949500611972873e-02
3.164739768837587230e-01 -2.833962904297249175e-02
3.172612255824745486e-01 -3.856670794666894331e-02
3.180484742811903187e-01 -4.985421436599635214e-02
3.188357229799061443e-01 -6.205431626037627435e-02
3.196229716786219699e-01 -7.506923058261105730e-02
3.204102203773377955e-01 -8.886034414076759980e-02
3.211974690760536211e-01 -1.032962146663829461e-01
3.219847177747694467e-01 -1.181906747196932450e-01
3.227719664734852723e-01 -1.335525210710428734e-01
3.235592151722010423e-01 -1.491844282719679837e-01
3.243464638709168679e-01 -1.648642084230835803e-01
3.251337125696326935e-01 -1.805284553297223926e-01
3.259209612683485191e-01 -1.958615732810786714e-01
3.267082099670643447e-01 -2.107189943013595412e-01
3.274954586657801703e-01 -2.249821587607776507e-01
3.282827073644959959e-01 -2.384475834716278664e-01
3.290699560632117660e-01 -2.509000137785203366e-01
3.298572047619275915e-01 -2.621945691888211138e-01
3.306444534606434171e-01 -2.720989281552024242e-01
3.314317021593592427e-01 -2.803986636131687860e-01
3.322189508580750683e-01 -2.870831905015621688e-01
3.330061995567908939e-01 -2.919422254977074305e-01
3.337934482555067195e-01 -2.948937618675376848e-01
3.345806969542224896e-01 -2.958178857416204899e-01
3.353679456529383152e-01 -2.946669440890240521e-01
3.361551943516541407e-01 -2.912800486100269870e-01
3.369424430503699663e-01 -2.858241064472177850e-01
3.377296917490857919e-01 -2.781911951181073039e-01
3.385169404478016175e-01 -2.684693749237226923e-01
3.393041891465174431e-01 -2.566743874531016711e-01
3.400914378452332132e-01 -2.429272577466674576e-01
3.408786865439490388e-01 -2.273168794836907258e-01
3.416659352426648644e-01 -2.100109468862118023e-01
3.424531839413806900e-01 -1.912754928089643869e-01
3.432404326400965155e-01 -1.711082023123838836e-01
3.440276813388123411e-01 -1.498702985660893550e-01
3.448149300375281667e-01 -1.276820658298437605e-01
3.456021787362439368e-01 -1.048740774734342462e-01
3.463894274349597624e-01 -8.165967832710985252e-02
3.471766761336755880e-01 -5.834823691424850800e-02
3.479639248323914136e-01 -3.513707868331428230e-02
3.487511735311072392e-01 -1.224640068566662521e-02
3.495384222298230648e-01 9.951554796749251253e-03
3.503256709285388903e-01 3.125196191128076784e-02
3.511129196272546604e-01 5.138656546121289637e-02
3.519001683259704860e-01 7.013387202902965356e-02
3.526874170246863116e-01 8.733526195578322771e-02
3.534746657234021372e-01 1.028189667257994877e-01
3.542619144221179628e-01 1.164411822933419938e-01
3.550491631208337884e-01 1.279986569646622829e-01
3.558364118195496140e-01 1.375523199490935600e-01
3.566236605182653840e-01 1.449243375893034536e-01
3.574109092169812096e-01 1.501196175571684055e-01
3.581981579156970352e-01 1.530064166420819216e-01
3.589854066144128608e-01 1.536226304047125790e-01
3.597726553131286864e-01 1.519022251939872170e-01
3.605599040118445120e-01 1.480429894462831353e-01
3.613471527105603376e-01 1.421541593722921437e-01
3.621344014092761077e-01 1.343552958131633002e-01
3.629216501079919333e-01 1.247539913724979854e-01
3.637088988067077588e-01 1.135181558510838240e-01
3.644961475054235844e-01 1.007841695728417530e-01
3.652833962041394100e-01 8.669162773401306588e-02
3.660706449028552356e-01 7.152593778664728674e-02
3.668578936015710612e-01 5.544863621354401140e-02
3.676451423002868313e-01 3.871090553213152319e-02
3.684323909990026569e-01 2.148280120280565697e-02
3.692196396977184825e-01 3.951046250825651640e-03
3.700068883964343081e-01 -1.382597654799544440e-02
3.707941370951501336e-01 -3.164087175808916186e-02
3.715813857938659592e-01 -4.921052227073718921e-02
3.723686344925817848e-01 -6.633551919186753132e-02
3.731558831912975549e-01 -8.287555403448598756e-02
3.739431318900133805e-01 -9.880002329755177559e-02
3.747303805887292061e-01 -1.141014960250635868e-01
3.755176292874450317e-01 -1.287257794818201795e-01
3.763048779861608573e-01 -1.424317727121962029e-01
3.770921266848766829e-01 -1.550617241595797502e-01
3.778793753835925084e-01 -1.666064203645047925e-01
3.786666240823082785e-01 -1.771326878448449271e-01
3.794538727810241041e-01 -1.866304113998319414e-01
3.802411214797399297e-01 -1.950725550673193531e-01
3.810283701784557553e-01 -2.023766198268740490e-01
3.818156188771715809e-01 -2.084652385897092230e-01
3.826028675758874065e-01 -2.133973793772960814e-01
3.833901162746032321e-01 -2.172447394850351987e-01
3.841773649733190021e-01 -2.199487972407402347e-01
3.849646136720348277e-01 -2.214041302966511804e-01
3.857518623707506533e-01 -2.216089329999079149e-01
3.865391110694664789e-01 -2.205843870475242552e-01
3.873263597681823045e-01 -2.182969026664214329e-01
3.881136084668981301e-01 -2.147129595317081030e-01
3.889008571656139557e-01 -2.097504235876415102e-01
3.896881058643297258e-01 -2.032991963085417630e-01
3.904753545630455513e-01 -1.953816400106005435e-01
3.912626032617613769e-01 -1.860188206438532221e-01
3.920498519604772025e-01 -1.752045341702673786e-01
3.928371006591930281e-01 -1.626833038595227876e-01
