0.000000000000000000e+00 -1.613644364909294637e-01
7.872486987158176753e-04 -5.421699576773486573e-02
1.574497397431635351e-03 -5.421699576773486573e-02
2.361746096147452918e-03 -5.421699576773486573e-02
3.148994794863270701e-03 -5.421699576773486573e-02
3.936243493579088051e-03 -5.421699576773486573e-02
4.723492192294905835e-03 -5.421699576773486573e-02
5.510740891010723619e-03 -5.421699576773486573e-02
6.297989589726541403e-03 -5.421699576773486573e-02
7.085238288442359186e-03 -5.421699576773486573e-02
7.872486987158176103e-03 -5.421699576773486573e-02
8.659735685873994754e-03 -5.421699576773486573e-02
9.446984384589811670e-03 -5.421699576773486573e-02
1.023423308330563032e-02 -5.421699576773486573e-02
1.102148178202144724e-02 -5.421699576773486573e-02
1.180873048073726589e-02 -5.421699576773486573e-02
1.259597917945308281e-02 -5.421699576773486573e-02
1.338322787816889972e-02 -5.421699576773486573e-02
1.417047657688471837e-02 -5.421699576773486573e-02
1.495772527560053529e-02 -5.421699576773486573e-02
1.574497397431635221e-02 -5.421699576773486573e-02
1.653222267303217086e-02 -5.421699576773486573e-02
1.731947137174798951e-02 -5.421699576773486573e-02
1.810672007046380816e-02 -5.421699576773486573e-02
1.889396876917962334e-02 -5.421699576773486573e-02
1.968121746789544199e-02 -5.421699576773486573e-02
2.046846616661126064e-02 -5.421699576773486573e-02
2.125571486532707582e-02 -5.421699576773486573e-02
2.204296356404289448e-02 -5.421699576773486573e-02
2.283021226275871313e-02 -5.421699576773486573e-02
2.361746096147453178e-02 -5.421699576773486573e-02
2.440470966019034696e-02 -5.421699576773486573e-02
2.519195835890616561e-02 -5.421699576773486573e-02
2.597920705762198426e-02 -5.421699576773486573e-02
2.676645575633779944e-02 -5.421699576773486573e-02
2.755370445505361809e-02 -5.421699576773486573e-02
2.834095315376943675e-02 -5.421699576773486573e-02
2.912820185248525540e-02 -5.421699576773486573e-02
2.991545055120107058e-02 -5.421699576773486573e-02
3.070269924991688923e-02 -5.421699576773486573e-02
3.148994794863270441e-02 -5.421699576773486573e-02
3.227719664734852306e-02 -5.421699576773486573e-02
3.306444534606434171e-02 -5.421699576773486573e-02
3.385169404478016036e-02 -5.421699576773486573e-02
3.463894274349597902e-02 -5.421699576773486573e-02
3.542619144221179767e-02 -5.421699576773486573e-02
3.621344014092761632e-02 -5.421699576773486573e-02
3.700068883964342803e-02 -5.421699576773486573e-02
3.778793753835924668e-02 -5.421699576773486573e-02
3.857518623707506533e-02 -5.421699576773486573e-02
3.936243493579088398e-02 -5.421699576773486573e-02
4.014968363450670263e-02 -5.421699576773486573e-02
4.093693233322252129e-02 -5.421699576773486573e-02
4.172418103193833994e-02 -5.421699576773486573e-02
4.251142973065415165e-02 -5.421699576773486573e-02
4.329867842936997030e-02 -5.421699576773486573e-02
4.408592712808578895e-02 -5.421699576773486573e-02
4.487317582680160760e-02 -5.421699576773486573e-02
4.566042452551742625e-02 -5.421699576773486573e-02
4.644767322423324490e-02 -5.421699576773486573e-02
4.723492192294906356e-02 -5.421699576773486573e-02
4.802217062166487527e-02 -5.421699576773486573e-02
4.880941932038069392e-02 -5.421699576773486573e-02
4.959666801909651257e-02 -5.421699576773486573e-02
5.038391671781233122e-02 -5.421699576773486573e-02
5.117116541652814987e-02 -5.421699576773486573e-02
5.195841411524396852e-02 -5.421699576773486573e-02
5.274566281395978717e-02 -5.421699576773486573e-02
5.353291151267559889e-02 -5.421699576773486573e-02
5.432016021139141754e-02 -5.421699576773486573e-02
5.510740891010723619e-02 -5.421699576773486573e-02
5.589465760882305484e-02 -5.421699576773486573e-02
5.668190630753887349e-02 -5.421699576773486573e-02
5.746915500625469214e-02 -5.421699576773486573e-02
5.825640370497051079e-02 -5.421699576773486573e-02
5.904365240368632251e-02 -5.421699576773486573e-02
5.983090110240214116e-02 -5.421699576773486573e-02
6.061814980111795981e-02 -5.421699576773486573e-02
6.140539849983377846e-02 -5.421699576773486573e-02
6.219264719854959711e-02 -5.421699576773486573e-02
6.297989589726540882e-02 -5.421699576773486573e-02
6.376714459598123441e-02 -5.421699576773486573e-02
6.455439329469704612e-02 -5.421699576773486573e-02
6.534164199341287171e-02 -5.421699576773486573e-02
6.612889069212868343e-02 -5.421699576773486573e-02
6.691613939084450902e-02 -5.421699576773486573e-02
6.770338808956032073e-02 -5.421699576773486573e-02
6.849063678827613244e-02 -5.421699576773486573e-02
6.927788548699195803e-02 -5.421699576773486573e-02
7.006513418570776974e-02 -5.421699576773486573e-02
7.085238288442359533e-02 -5.421699576773486573e-02
7.163963158313940705e-02 -5.421699576773486573e-02
7.242688028185523264e-02 -5.421699576773486573e-02
7.321412898057104435e-02 -5.421699576773486573e-02
7.400137767928685606e-02 -5.421699576773486573e-02
7.478862637800268165e-02 -5.421699576773486573e-02
7.557587507671849336e-02 -5.421699576773486573e-02
7.636312377543431895e-02 -5.421699576773486573e-02
7.715037247415013066e-02 -5.421699576773486573e-02
7.793762117286595625e-02 -5.421699576773486573e-02
7.872486987158176797e-02 -5.421699576773486573e-02
7.951211857029757968e-02 -5.421699576773486573e-02
8.029936726901340527e-02 -5.421699576773486573e-02
8.108661596772921698e-02 -5.421699576773486573e-02
8.187386466644504257e-02 -5.421699576773486573e-02
8.266111336516085428e-02 -5.421699576773486573e-02
8.344836206387667987e-02 -5.421699576773486573e-02
8.423561076259249158e-02 -5.421699576773486573e-02
8.502285946130830330e-02 -5.421699576773486573e-02
8.581010816002412889e-02 -5.421699576773486573e-02
8.659735685873994060e-02 -5.421699576773486573e-02
8.738460555745576619e-02 -5.421699576773486573e-02
8.817185425617157790e-02 -5.421699576773486573e-02
8.895910295488740349e-02 -5.421699576773486573e-02
8.974635165360321520e-02 -5.421699576773486573e-02
9.053360035231902692e-02 -5.421699576773486573e-02
9.132084905103485251e-02 -5.421699576773486573e-02
9.210809774975066422e-02 -5.421699576773486573e-02
9.289534644846648981e-02 -5.421699576773486573e-02
9.368259514718230152e-02 -5.421699576773486573e-02
9.446984384589812711e-02 -5.421699576773486573e-02
9.525709254461393882e-02 -5.421699576773486573e-02
9.604434124332975053e-02 -5.421699576773486573e-02
9.683158994204557612e-02 -5.421699576773486573e-02
9.761883864076138784e-02 -5.421699576773486573e-02
9.840608733947721343e-02 -5.421699576773486573e-02
9.919333603819302514e-02 -5.421699576773486573e-02
9.998058473690885073e-02 -5.421699576773486573e-02
1.007678334356246624e-01 -5.421699576773486573e-02
1.015550821343404742e-01 -5.421699576773486573e-02
1.023423308330562997e-01 -5.421699576773486573e-02
1.031295795317721115e-01 -5.421699576773486573e-02
1.039168282304879370e-01 -5.421699576773486573e-02
1.047040769292037488e-01 -5.421699576773486573e-02
1.054913256279195743e-01 -5.421699576773486573e-02
1.062785743266353861e-01 -5.421699576773486573e-02
1.070658230253511978e-01 -5.421699576773486573e-02
1.078530717240670234e-01 -5.421699576773486573e-02
1.086403204227828351e-01 -5.421699576773486573e-02
1.094275691214986607e-01 -5.421699576773486573e-02
1.102148178202144724e-01 -5.421699576773486573e-02
1.110020665189302980e-01 -5.421699576773486573e-02
1.117893152176461097e-01 -5.421699576773486573e-02
1.125765639163619214e-01 -5.421699576773486573e-02
1.133638126150777470e-01 -5.421699576773486573e-02
1.141510613137935587e-01 -5.421699576773486573e-02
1.149383100125093843e-01 -5.421699576773486573e-02
1.157255587112251960e-01 -5.421699576773486573e-02
1.165128074099410216e-01 -5.421699576773486573e-02
1.173000561086568333e-01 -5.421699576773486573e-02
1.180873048073726450e-01 -5.421699576773486573e-02
1.188745535060884706e-01 -5.421699576773486573e-02
1.196618022048042823e-01 -5.421699576773486573e-02
1.204490509035201079e-01 -5.421699576773486573e-02
1.212362996022359196e-01 -5.421699576773486573e-02
1.220235483009517452e-01 -5.421699576773486573e-02
1.228107969996675569e-01 -5.421699576773486573e-02
1.235980456983833686e-01 -5.421699576773486573e-02
1.243852943970991942e-01 -5.421699576773486573e-02
1.251725430958150198e-01 -5.421699576773486573e-02
1.259597917945308176e-01 -5.421699576773486573e-02
1.267470404932466432e-01 -5.421699576773486573e-02
1.275342891919624688e-01 -5.421699576773486573e-02
1.283215378906782944e-01 -5.421699576773486573e-02
1.291087865893940922e-01 -5.421699576773486573e-02
1.298960352881099178e-01 -5.421699576773486573e-02
1.306832839868257434e-01 -5.421699576773486573e-02
1.314705326855415413e-01 -5.421699576773486573e-02
1.322577813842573669e-01 -5.421699576773486573e-02
1.330450300829731924e-01 -5.421699576773486573e-02
1.338322787816890180e-01 -5.421699576773486573e-02
1.346195274804048159e-01 -5.421699576773486573e-02
1.354067761791206415e-01 -5.421699576773486573e-02
1.361940248778364670e-01 -5.421699576773486573e-02
1.369812735765522649e-01 -5.421699576773486573e-02
1.377685222752680905e-01 -5.421699576773486573e-02
1.385557709739839161e-01 -5.421699576773486573e-02
1.393430196726997417e-01 -5.421699576773486573e-02
1.401302683714155395e-01 -5.421699576773486573e-02
1.409175170701313651e-01 -5.421699576773486573e-02
1.417047657688471907e-01 -5.421699576773486573e-02
1.424920144675629885e-01 -5.421699576773486573e-02
1.432792631662788141e-01 -5.421699576773486573e-02
1.440665118649946397e-01 -5.421699576773486573e-02
1.448537605637104653e-01 -5.421699576773486573e-02
1.456410092624262631e-01 -5.421699576773486573e-02
1.464282579611420887e-01 -5.421699576773486573e-02
1.472155066598579143e-01 -5.421699576773486573e-02
1.480027553585737121e-01 -5.421699576773486573e-02
1.487900040572895377e-01 -5.421699576773486573e-02
1.495772527560053633e-01 -5.421699576773486573e-02
1.503645014547211889e-01 -5.421699576773486573e-02
1.511517501534369867e-01 -5.421699576773486573e-02
1.519389988521528123e-01 -5.421699576773486573e-02
1.527262475508686379e-01 -5.421699576773486573e-02
1.535134962495844357e-01 -5.421699576773486573e-02
1.543007449483002613e-01 -5.421699576773486573e-02
1.550879936470160869e-01 -5.421699576773486573e-02
1.558752423457319125e-01 -5.421699576773486573e-02
1.566624910444477103e-01 -5.421699576773486573e-02
1.574497397431635359e-01 -5.421699576773486573e-02
1.582369884418793615e-01 -5.421699576773486573e-02
1.590242371405951594e-01 -5.421699576773486573e-02
1.598114858393109849e-01 -5.421699576773486573e-02
1.605987345380268105e-01 -5.421699576773486573e-02
1.613859832367426361e-01 -5.421699576773486573e-02
1.621732319354584340e-01 -5.421699576773486573e-02
1.629604806341742596e-01 -5.421699576773486573e-02
1.637477293328900851e-01 -5.421699576773486573e-02
1.645349780316058830e-01 -5.421699576773486573e-02
1.653222267303217086e-01 -5.421699576773486573e-02
1.661094754290375342e-01 -5.421699576773486573e-02
1.668967241277533597e-01 -5.421699576773486573e-02
1.676839728264691576e-01 -5.421699576773486573e-02
1.684712215251849832e-01 -5.421699576773486573e-02
1.692584702239008088e-01 -5.421699576773486573e-02
1.700457189226166066e-01 -5.421699576773486573e-02
1.708329676213324322e-01 -5.421699576773486573e-02
1.716202163200482578e-01 -5.421699576773486573e-02
1.724074650187640834e-01 -5.421699576773486573e-02
1.731947137174798812e-01 -5.421699576773486573e-02
1.739819624161957068e-01 -5.421699576773486573e-02
1.747692111149115324e-01 -5.421699576773486573e-02
1.755564598136273302e-01 -5.421699576773486573e-02
1.763437085123431558e-01 -5.421699576773486573e-02
1.771309572110589814e-01 -5.421699576773486573e-02
1.779182059097748070e-01 -5.421699576773486573e-02
1.787054546084906048e-01 -5.421699576773486573e-02
1.794927033072064304e-01 -5.421699576773486573e-02
1.802799520059222560e-01 -5.421699576773486573e-02
1.810672007046380538e-01 -5.421699576773486573e-02
1.818544494033538794e-01 -5.421699576773486573e-02
1.826416981020697050e-01 -5.421699576773486573e-02
1.834289468007855306e-01 -5.421699576773486573e-02
1.842161954995013284e-01 -5.421699576773486573e-02
1.850034441982171540e-01 -5.421699576773486573e-02
1.857906928969329796e-01 -5.421699576773486573e-02
1.865779415956487775e-01 -5.421699576773486573e-02
1.873651902943646030e-01 -5.421699576773486573e-02
1.881524389930804286e-01 -5.421699576773486573e-02
1.889396876917962542e-01 -5.421699576773486573e-02
1.897269363905120521e-01 -5.421699576773486573e-02
1.905141850892278776e-01 -5.421699576773486573e-02
1.913014337879437032e-01 -5.421699576773486573e-02
1.920886824866595011e-01 -5.421699576773486573e-02
1.928759311853753267e-01 -5.421699576773486573e-02
1.936631798840911522e-01 -5.421699576773486573e-02
1.944504285828069778e-01 -5.421699576773486573e-02
1.952376772815227757e-01 -5.421699576773486573e-02
1.960249259802386013e-01 -5.421699576773486573e-02
1.968121746789544269e-01 -5.421699576773486573e-02
1.975994233776702247e-01 -5.421699576773486573e-02
1.983866720763860503e-01 -5.421699576773486573e-02
1.991739207751018759e-01 -5.421699576773486573e-02
1.999611694738177015e-01 -5.421699576773486573e-02
2.007484181725334993e-01 -5.421699576773486573e-02
2.015356668712493249e-01 -5.421699576773486573e-02
2.023229155699651505e-01 -5.421699576773486573e-02
2.031101642686809483e-01 -5.421699576773486573e-02
2.038974129673967739e-01 -5.421699576773486573e-02
2.046846616661125995e-01 -5.421699576773486573e-02
2.054719103648284251e-01 -5.421699576773486573e-02
2.062591590635442229e-01 -5.421699576773486573e-02
2.070464077622600485e-01 -5.421699576773486573e-02
2.078336564609758741e-01 -5.421699576773486573e-02
2.086209051596916719e-01 -5.421699576773486573e-02
2.094081538584074975e-01 -5.421699576773486573e-02
2.101954025571233231e-01 -5.421699576773486573e-02
2.109826512558391487e-01 -5.421699576773486573e-02
2.117698999545549465e-01 -5.421699576773486573e-02
2.125571486532707721e-01 -5.421699576773486573e-02
2.133443973519865977e-01 -5.421699576773486573e-02
2.141316460507023955e-01 -5.421699576773486573e-02
2.149188947494182211e-01 -5.421699576773486573e-02
2.157061434481340467e-01 -5.421699576773486573e-02
2.164933921468498723e-01 -5.421699576773486573e-02
2.172806408455656701e-01 -5.421699576773486573e-02
2.180678895442814957e-01 -5.421699576773486573e-02
2.188551382429973213e-01 -5.421699576773486573e-02
2.196423869417131192e-01 -5.421699576773486573e-02
2.204296356404289448e-01 -5.421699576773486573e-02
2.212168843391447703e-01 -5.421699576773486573e-02
2.220041330378605959e-01 -5.421699576773486573e-02
2.227913817365763938e-01 -5.421699576773486573e-02
2.235786304352922194e-01 -5.421699576773486573e-02
2.243658791340080449e-01 -5.421699576773486573e-02
2.251531278327238428e-01 -5.421699576773486573e-02
2.259403765314396684e-01 -5.421699576773486573e-02
2.267276252301554940e-01 -5.421699576773486573e-02
2.275148739288713196e-01 -5.421699576773486573e-02
2.283021226275871174e-01 -5.421699576773486573e-02
2.290893713263029430e-01 -5.421699576773486573e-02
2.298766200250187686e-01 -5.421699576773486573e-02
2.306638687237345664e-01 -5.421699576773486573e-02
2.314511174224503920e-01 -5.421699576773486573e-02
2.322383661211662176e-01 -5.421699576773486573e-02
2.330256148198820432e-01 -5.421699576773486573e-02
2.338128635185978410e-01 -5.421699576773486573e-02
2.346001122173136666e-01 -5.421699576773486573e-02
2.353873609160294922e-01 -5.421699576773486573e-02
2.361746096147452900e-01 -5.421699576773486573e-02
2.369618583134611156e-01 -5.421699576773486573e-02
2.377491070121769412e-01 -5.421699576773486573e-02
2.385363557108927668e-01 -5.421699576773486573e-02
2.393236044096085646e-01 -5.421699576773486573e-02
2.401108531083243902e-01 -5.421699576773486573e-02
2.408981018070402158e-01 -5.421699576773475471e-02
2.416853505057560136e-01 -5.421699576773397755e-02
2.424725992044718392e-01 -5.421699576773353346e-02
2.432598479031876648e-01 -5.421699576772542883e-02
2.440470966019034904e-01 -5.421699576772120999e-02
2.448343453006192882e-01 -5.421699576764826833e-02
2.456215939993351138e-01 -5.421699576761052075e-02
2.464088426980509394e-01 -5.421699576702065926e-02
2.471960913967667373e-01 -5.421699576671190624e-02
2.479833400954825628e-01 -5.421699576239813467e-02
2.487705887941983884e-01 -5.421699576012317667e-02
2.495578374929142140e-01 -5.421699573157556795e-02
2.503450861916300396e-01 -5.421699571638671777e-02
2.511323348903458652e-01 -5.421699554528236487e-02
2.519195835890616353e-01 -5.421699545331881698e-02
2.527068322877774609e-01 -5.421699452408301756e-02
2.534940809864932865e-01 -5.421699401879365166e-02
2.542813296852091121e-01 -5.421698944645148011e-02
2.550685783839249376e-01 -5.421698692643484030e-02
2.558558270826407632e-01 -5.421696655353580585e-02
2.566430757813565888e-01 -5.421695514783309022e-02
2.574303244800723589e-01 -5.421687304174738209e-02
2.582175731787881845e-01 -5.421682622312584687e-02
2.590048218775040101e-01 -5.421652745541094554e-02
2.597920705762198357e-01 -5.421635335243457643e-02
2.605793192749356613e-01 -5.421537424994726795e-02
2.613665679736514869e-01 -5.421478868894102909e-02
2.621538166723673124e-01 -5.421190886836702028e-02
2.629410653710830825e-01 -5.421013157666032534e-02
2.637283140697989081e-01 -5.420256378327281688e-02
2.645155627685147337e-01 -5.419770927807243677e-02
2.653028114672305593e-01 -5.418004621395822173e-02
2.660900601659463849e-01 -5.416815442423783544e-02
2.668773088646622105e-01 -5.413181680913625726e-02
2.676645575633780361e-01 -5.410579334198639678e-02
2.684518062620938061e-01 -5.404051969020717827e-02
2.692390549608096317e-01 -5.398984933110229090e-02
2.700263036595254573e-01 -5.388856369443795202e-02
2.708135523582412829e-01 -5.380104527916607093e-02
2.716008010569571085e-01 -5.366642451277525705e-02
2.723880497556729341e-01 -5.353223890528757689e-02
2.731752984543887597e-01 -5.337771135415581014e-02
2.739625471531045298e-01 -5.319315930815671223e-02
2.747497958518203554e-01 -5.302907178004290234e-02
2.755370445505361809e-01 -5.279427388037249980e-02
2.763242932492520065e-01 -5.260144990423321065e-02
2.771115419479678321e-01 -5.230854566508813530e-02
2.778987906466836577e-01 -5.202459065676034999e-02
2.786860393453994833e-01 -5.164349336927231970e-02
2.794732880441152534e-01 -5.119333637064982234e-02
2.802605367428310790e-01 -5.067184342422437204e-02
2.810477854415469046e-01 -5.003059322849623403e-02
2.818350341402627302e-01 -4.931658846106334870e-02
2.826222828389785557e-01 -4.852933828239636149e-02
2.834095315376943813e-01 -4.759477041378523676e-02
2.841967802364102069e-01 -4.669690880564114632e-02
2.849840289351259770e-01 -4.553332324251180285e-02
2.857712776338418026e-01 -4.444941500551236047e-02
2.865585263325576282e-01 -4.304295755799059098e-02
2.873457750312734538e-01 -4.161825549302744509e-02
2.881330237299892794e-01 -3.994952262705264712e-02
2.889202724287051050e-01 -3.810422063948259996e-02
2.897075211274209305e-01 -3.617505128517106705e-02
2.904947698261367006e-01 -3.396228157850733620e-02
2.912820185248525262e-01 -3.178113394629233923e-02
2.920692672235683518e-01 -2.926463259408984552e-02
2.928565159222841774e-01 -2.678618884832495439e-02
2.936437646210000030e-01 -2.396950928281504911e-02
2.944310133197158286e-01 -2.112263133068836840e-02
2.952182620184316542e-01 -1.805118109142545002e-02
2.960055107171474242e-01 -1.489236503300450654e-02
2.967927594158632498e-01 -1.167433282052787735e-02
2.975800081145790754e-01 -8.425500337147839858e-03
2.983672568132949010e-01 -5.109106342582547811e-03
2.991545055120107266e-01 -1.945637255637344687e-03
2.999417542107265522e-01 1.388385003710412846e-03
3.007290029094423778e-01 4.444186251518322806e-03
3.015162516081581479e-01 7.457184266781879955e-03
3.023035003068739734e-01 1.027083126146233205e-02
3.030907490055897990e-01 1.257283031363365389e-02
3.038779977043056246e-01 1.471801535971661856e-02
3.046652464030214502e-01 1.620795676211450598e-02
3.054524951017372758e-01 1.726567579845506017e-02
3.062397438004531014e-01 1.782704864280648671e-02
3.070269924991688715e-01 1.761208335486230681e-02
3.078142411978846971e-01 1.675618074974050131e-02
3.086014898966005227e-01 1.505094996785927286e-02
3.093887385953163482e-01 1.235270271046085000e-02
3.101759872940321738e-01 8.793390532711997665e-03
3.109632359927479994e-01 4.182262414511583870e-03
3.117504846914638250e-01 -1.446744630127283493e-03
3.125377333901795951e-01 -8.125113779279602433e-03
3.133249820888954207e-01 -1.590812578974165614e-02
3.141122307876112463e-01 -2.488171121814153341e-02
3.148994794863270719e-01 -3.495762456828688247e-02
3.156867281850428975e-01 -4.612044834267925442e-02
3.164739768837587230e-01 -5.838106275727084071e-02
3.172612255824745486e-01 -7.153153994039307406e-02
3.180484742811903187e-01 -8.553956333572787507e-02
3.188357229799061443e-01 -1.004536540765437191e-01
3.196229716786219699e-01 -1.158808280223989629e-01
3.204102203773377955e-01 -1.319361839684323190e-01
3.211974690760536211e-01 -1.483649859649843750e-01
3.219847177747694467e-01 -1.648801815060774167e-01
3.227719664734852723e-01 -1.814326012753649797e-01
3.235592151722010423e-01 -1.978332767562104300e-01
3.243464638709168679e-01 -2.136725446686108532e-01
3.251337125696326935e-01 -2.289657762112735639e-01
3.259209612683485191e-01 -2.433701201536971892e-01
3.267082099670643447e-01 -2.565369668532138103e-01
3.274954586657801703e-01 -2.684485173182480366e-01
3.282827073644959959e-01 -2.788336107412223708e-01
3.290699560632117660e-01 -2.873642299520214882e-01
3.298572047619275915e-01 -2.940896560351677902e-01
3.306444534606434171e-01 -2.986882950544186288e-01
3.314317021593592427e-01 -3.009576303093370875e-01
3.322189508580750683e-01 -3.008842698745431976e-01
3.330061995567908939e-01 -2.983989044594810291e-01
3.337934482555067195e-01 -2.932614979807245392e-01
3.345806969542224896e-01 -2.857009516623951750e-01
3.353679456529383152e-01 -2.756374926871059117e-01
3.361551943516541407e-01 -2.629956540250595332e-01
3.369424430503699663e-01 -2.480728128126904464e-01
3.377296917490857919e-01 -2.308782751070473926e-01
3.385169404478016175e-01 -2.115670492613583864e-01
3.393041891465174431e-01 -1.903341457845227902e-01
3.400914378452332132e-01 -1.675308799048245145e-01
3.408786865439490388e-01 -1.431716042475622563e-01
3.416659352426648644e-01 -1.177094913818503841e-01
3.424531839413806900e-01 -9.149030068101815516e-02
3.432404326400965155e-01 -6.465505826332496042e-02
3.440276813388123411e-01 -3.767378945791333145e-02
3.448149300375281667e-01 -1.086243721652402350e-02
3.456021787362439368e-01 1.552166977887137200e-02
3.463894274349597624e-01 4.114564321892166809e-02
3.471766761336755880e-01 6.557214472113215287e-02
3.479639248323914136e-01 8.857810670908383699e-02
3.487511735311072392e-01 1.099371280933842954e-01
3.495384222298230648e-01 1.292302974104715396e-01
3.503256709285388903e-01 1.463577018687487463e-01
3.511129196272546604e-01 1.611387298834066062e-01
3.519001683259704860e-01 1.732968387740894123e-01
3.526874170246863116e-01 1.827436904470223222e-01
3.534746657234021372e-01 1.894828267597383764e-01
3.542619144221179628e-01 1.933438450109070672e-01
3.550491631208337884e-01 1.943309931146288694e-01
3.558364118195496140e-01 1.925288039827701692e-01
3.566236605182653840e-01 1.880044311184176919e-01
3.574109092169812096e-01 1.807607537276545440e-01
3.581981579156970352e-01 1.711420648142798484e-01
3.589854066144128608e-01 1.592309303149483934e-01
3.597726553131286864e-01 1.452387179568379594e-01
3.605599040118445120e-01 1.294499851751269581e-01
3.613471527105603376e-01 1.122302377776283056e-01
3.621344014092761077e-01 9.366842731710178782e-02
3.629216501079919333e-01 7.407033416060015973e-02
3.637088988067077588e-01 5.363821457785955538e-02
3.644961475054235844e-01 3.257911676351454844e-02
3.652833962041394100e-01 1.119083454312064241e-02
3.660706449028552356e-01 -1.005734753483933375e-02
3.668578936015710612e-01 -3.092537023754426961e-02
3.676451423002868313e-01 -5.126040125495656685e-02
3.684323909990026569e-01 -7.079612993959494283e-02
3.692196396977184825e-01 -8.944741281428314483e-02
3.700068883964343081e-01 -1.070692883635026016e-01
3.707941370951501336e-01 -1.235030906295135900e-01
3.715813857938659592e-01 -1.385335302328328799e-01
3.723686344925817848e-01 -1.521993129629762853e-01
3.731558831912975549e-01 -1.643815435239195377e-01
3.739431318900133805e-01 -1.750281820742561889e-01
3.747303805887292061e-01 -1.842077276756951543e-01
3.755176292874450317e-01 -1.920149308046045222e-01
3.763048779861608573e-01 -1.984180420648594678e-01
3.770921266848766829e-01 -2.034611494804627885e-01
3.778793753835925084e-01 -2.072685522844842643e-01
3.786666240823082785e-01 -2.098849591940973314e-01
3.794538727810241041e-01 -2.114773337785424978e-01
3.802411214797399297e-01 -2.122309898436193221e-01
3.810283701784557553e-01 -2.122513627586227747e-01
3.818156188771715809e-01 -2.115416312249419617e-01
3.826028675758874065e-01 -2.102847116390901272e-01
3.833901162746032321e-01 -2.085842264833160931e-01
3.841773649733190021e-01 -2.065107119661447888e-01
3.849646136720348277e-01 -2.041025266361575774e-01
3.857518623707506533e-01 -2.014985437178188343e-01
3.865391110694664789e-01 -1.987214496188590696e-01
3.873263597681823045e-01 -1.958020793342751809e-01
3.881136084668981301e-01 -1.927616840092678530e-01
3.889008571656139557e-01 -1.894517834201806528e-01
3.896881058643297258e-01 -1.858214025978066619e-01
3.904753545630455513e-01 -1.818463735730944109e-01
3.912626032617613769e-01 -1.776325353829252274e-01
3.920498519604772025e-01 -1.729132069894877555e-01
3.928371006591930281e-01 -1.675780120743544099e-01
