0.000000000000000000e+00 -7.235889934068673313e-02
7.872486987158176753e-04 -5.421699576773486573e-02
1.574497397431635351e-03 -5.421699576773486573e-02
2.361746096147452918e-03 -5.421699576773486573e-02
3.148994794863270701e-03 -5.421699576773486573e-02
3.936243493579088051e-03 -5.421699576773486573e-02
4.723492192294905835e-03 -5.421699576773486573e-02
5.510740891010723619e-03 -5.421699576773486573e-02
6.297989589726541403e-03 -5.421699576773486573e-02
7.085238288442359186e-03 -5.421699576773486573e-02
7.872486987158176103e-03 -5.421699576773486573e-02
8.659735685873994754e-03 -5.421699576773486573e-02
9.446984384589811670e-03 -5.421699576773486573e-02
1.023423308330563032e-02 -5.421699576773486573e-02
1.102148178202144724e-02 -5.421699576773486573e-02
1.180873048073726589e-02 -5.421699576773486573e-02
1.259597917945308281e-02 -5.421699576773486573e-02
1.338322787816889972e-02 -5.421699576773486573e-02
1.417047657688471837e-02 -5.421699576773486573e-02
1.495772527560053529e-02 -5.421699576773486573e-02
1.574497397431635221e-02 -5.421699576773486573e-02
1.653222267303217086e-02 -5.421699576773486573e-02
1.731947137174798951e-02 -5.421699576773486573e-02
1.810672007046380816e-02 -5.421699576773486573e-02
1.889396876917962334e-02 -5.421699576773486573e-02
1.968121746789544199e-02 -5.421699576773486573e-02
2.046846616661126064e-02 -5.421699576773486573e-02
2.125571486532707582e-02 -5.421699576773486573e-02
2.204296356404289448e-02 -5.421699576773486573e-02
2.283021226275871313e-02 -5.421699576773486573e-02
2.361746096147453178e-02 -5.421699576773486573e-02
2.440470966019034696e-02 -5.421699576773486573e-02
2.519195835890616561e-02 -5.421699576773486573e-02
2.597920705762198426e-02 -5.421699576773486573e-02
2.676645575633779944e-02 -5.421699576773486573e-02
2.755370445505361809e-02 -5.421699576773486573e-02
2.834095315376943675e-02 -5.421699576773486573e-02
2.912820185248525540e-02 -5.421699576773486573e-02
2.991545055120107058e-02 -5.421699576773486573e-02
3.070269924991688923e-02 -5.421699576773486573e-02
3.148994794863270441e-02 -5.421699576773486573e-02
3.227719664734852306e-02 -5.421699576773486573e-02
3.306444534606434171e-02 -5.421699576773486573e-02
3.385169404478016036e-02 -5.421699576773486573e-02
3.463894274349597902e-02 -5.421699576773486573e-02
3.542619144221179767e-02 -5.421699576773486573e-02
3.621344014092761632e-02 -5.421699576773486573e-02
3.700068883964342803e-02 -5.421699576773486573e-02
3.778793753835924668e-02 -5.421699576773486573e-02
3.857518623707506533e-02 -5.421699576773486573e-02
3.936243493579088398e-02 -5.421699576773486573e-02
4.014968363450670263e-02 -5.421699576773486573e-02
4.093693233322252129e-02 -5.421699576773486573e-02
4.172418103193833994e-02 -5.421699576773486573e-02
4.251142973065415165e-02 -5.421699576773486573e-02
4.329867842936997030e-02 -5.421699576773486573e-02
4.408592712808578895e-02 -5.421699576773486573e-02
4.487317582680160760e-02 -5.421699576773486573e-02
4.566042452551742625e-02 -5.421699576773486573e-02
4.644767322423324490e-02 -5.421699576773486573e-02
4.723492192294906356e-02 -5.421699576773486573e-02
4.802217062166487527e-02 -5.421699576773486573e-02
4.880941932038069392e-02 -5.421699576773486573e-02
4.959666801909651257e-02 -5.421699576773486573e-02
5.038391671781233122e-02 -5.421699576773486573e-02
5.117116541652814987e-02 -5.421699576773486573e-02
5.195841411524396852e-02 -5.421699576773486573e-02
5.274566281395978717e-02 -5.421699576773486573e-02
5.353291151267559889e-02 -5.421699576773486573e-02
5.432016021139141754e-02 -5.421699576773486573e-02
5.510740891010723619e-02 -5.421699576773486573e-02
5.589465760882305484e-02 -5.421699576773486573e-02
5.668190630753887349e-02 -5.421699576773486573e-02
5.746915500625469214e-02 -5.421699576773486573e-02
5.825640370497051079e-02 -5.421699576773486573e-02
5.904365240368632251e-02 -5.421699576773486573e-02
5.983090110240214116e-02 -5.421699576773486573e-02
6.061814980111795981e-02 -5.421699576773486573e-02
6.140539849983377846e-02 -5.421699576773486573e-02
6.219264719854959711e-02 -5.421699576773486573e-02
6.297989589726540882e-02 -5.421699576773486573e-02
6.376714459598123441e-02 -5.421699576773486573e-02
6.455439329469704612e-02 -5.421699576773486573e-02
6.534164199341287171e-02 -5.421699576773486573e-02
6.612889069212868343e-02 -5.421699576773486573e-02
6.691613939084450902e-02 -5.421699576773486573e-02
6.770338808956032073e-02 -5.421699576773486573e-02
6.849063678827613244e-02 -5.421699576773486573e-02
6.927788548699195803e-02 -5.421699576773486573e-02
7.006513418570776974e-02 -5.421699576773486573e-02
7.085238288442359533e-02 -5.421699576773486573e-02
7.163963158313940705e-02 -5.421699576773486573e-02
7.242688028185523264e-02 -5.421699576773486573e-02
7.321412898057104435e-02 -5.421699576773486573e-02
7.400137767928685606e-02 -5.421699576773486573e-02
7.478862637800268165e-02 -5.421699576773486573e-02
7.557587507671849336e-02 -5.421699576773486573e-02
7.636312377543431895e-02 -5.421699576773486573e-02
7.715037247415013066e-02 -5.421699576773486573e-02
7.793762117286595625e-02 -5.421699576773486573e-02
7.872486987158176797e-02 -5.421699576773486573e-02
7.951211857029757968e-02 -5.421699576773486573e-02
8.029936726901340527e-02 -5.421699576773486573e-02
8.108661596772921698e-02 -5.421699576773486573e-02
8.187386466644504257e-02 -5.421699576773486573e-02
8.266111336516085428e-02 -5.421699576773486573e-02
8.344836206387667987e-02 -5.421699576773486573e-02
8.423561076259249158e-02 -5.421699576773486573e-02
8.502285946130830330e-02 -5.421699576773486573e-02
8.581010816002412889e-02 -5.421699576773486573e-02
8.659735685873994060e-02 -5.421699576773486573e-02
8.738460555745576619e-02 -5.421699576773486573e-02
8.817185425617157790e-02 -5.421699576773486573e-02
8.895910295488740349e-02 -5.421699576773486573e-02
8.974635165360321520e-02 -5.421699576773486573e-02
9.053360035231902692e-02 -5.421699576773486573e-02
9.132084905103485251e-02 -5.421699576773486573e-02
9.210809774975066422e-02 -5.421699576773486573e-02
9.289534644846648981e-02 -5.421699576773486573e-02
9.368259514718230152e-02 -5.421699576773486573e-02
9.446984384589812711e-02 -5.421699576773486573e-02
9.525709254461393882e-02 -5.421699576773486573e-02
9.604434124332975053e-02 -5.421699576773486573e-02
9.683158994204557612e-02 -5.421699576773486573e-02
9.761883864076138784e-02 -5.421699576773486573e-02
9.840608733947721343e-02 -5.421699576773486573e-02
9.919333603819302514e-02 -5.421699576773486573e-02
9.998058473690885073e-02 -5.421699576773486573e-02
1.007678334356246624e-01 -5.421699576773486573e-02
1.015550821343404742e-01 -5.421699576773486573e-02
1.023423308330562997e-01 -5.421699576773486573e-02
1.031295795317721115e-01 -5.421699576773486573e-02
1.039168282304879370e-01 -5.421699576773486573e-02
1.047040769292037488e-01 -5.421699576773486573e-02
1.054913256279195743e-01 -5.421699576773486573e-02
1.062785743266353861e-01 -5.421699576773486573e-02
1.070658230253511978e-01 -5.421699576773486573e-02
1.078530717240670234e-01 -5.421699576773486573e-02
1.086403204227828351e-01 -5.421699576773486573e-02
1.094275691214986607e-01 -5.421699576773486573e-02
1.102148178202144724e-01 -5.421699576773486573e-02
1.110020665189302980e-01 -5.421699576773486573e-02
1.117893152176461097e-01 -5.421699576773486573e-02
1.125765639163619214e-01 -5.421699576773486573e-02
1.133638126150777470e-01 -5.421699576773486573e-02
1.141510613137935587e-01 -5.421699576773486573e-02
1.149383100125093843e-01 -5.421699576773486573e-02
1.157255587112251960e-01 -5.421699576773486573e-02
1.165128074099410216e-01 -5.421699576773486573e-02
1.173000561086568333e-01 -5.421699576773486573e-02
1.180873048073726450e-01 -5.421699576773486573e-02
1.188745535060884706e-01 -5.421699576773486573e-02
1.196618022048042823e-01 -5.421699576773486573e-02
1.204490509035201079e-01 -5.421699576773486573e-02
1.212362996022359196e-01 -5.421699576773486573e-02
1.220235483009517452e-01 -5.421699576773486573e-02
1.228107969996675569e-01 -5.421699576773486573e-02
1.235980456983833686e-01 -5.421699576773486573e-02
1.243852943970991942e-01 -5.421699576773486573e-02
1.251725430958150198e-01 -5.421699576773486573e-02
1.259597917945308176e-01 -5.421699576773486573e-02
1.267470404932466432e-01 -5.421699576773486573e-02
1.275342891919624688e-01 -5.421699576773486573e-02
1.283215378906782944e-01 -5.421699576773486573e-02
1.291087865893940922e-01 -5.421699576773486573e-02
1.298960352881099178e-01 -5.421699576773486573e-02
1.306832839868257434e-01 -5.421699576773486573e-02
1.314705326855415413e-01 -5.421699576773486573e-02
1.322577813842573669e-01 -5.421699576773486573e-02
1.330450300829731924e-01 -5.421699576773486573e-02
1.338322787816890180e-01 -5.421699576773486573e-02
1.346195274804048159e-01 -5.421699576773486573e-02
1.354067761791206415e-01 -5.421699576773486573e-02
1.361940248778364670e-01 -5.421699576773486573e-02
1.369812735765522649e-01 -5.421699576773486573e-02
1.377685222752680905e-01 -5.421699576773486573e-02
1.385557709739839161e-01 -5.421699576773486573e-02
1.393430196726997417e-01 -5.421699576773486573e-02
1.401302683714155395e-01 -5.421699576773486573e-02
1.409175170701313651e-01 -5.421699576773486573e-02
1.417047657688471907e-01 -5.421699576773486573e-02
1.424920144675629885e-01 -5.421699576773486573e-02
1.432792631662788141e-01 -5.421699576773486573e-02
1.440665118649946397e-01 -5.421699576773486573e-02
1.448537605637104653e-01 -5.421699576773486573e-02
1.456410092624262631e-01 -5.421699576773486573e-02
1.464282579611420887e-01 -5.421699576773486573e-02
1.472155066598579143e-01 -5.421699576773486573e-02
1.480027553585737121e-01 -5.421699576773486573e-02
1.487900040572895377e-01 -5.421699576773486573e-02
1.495772527560053633e-01 -5.421699576773486573e-02
1.503645014547211889e-01 -5.421699576773486573e-02
1.511517501534369867e-01 -5.421699576773486573e-02
1.519389988521528123e-01 -5.421699576773486573e-02
1.527262475508686379e-01 -5.421699576773486573e-02
1.535134962495844357e-01 -5.421699576773486573e-02
1.543007449483002613e-01 -5.421699576773486573e-02
1.550879936470160869e-01 -5.421699576773486573e-02
1.558752423457319125e-01 -5.421699576773486573e-02
1.566624910444477103e-01 -5.421699576773486573e-02
1.574497397431635359e-01 -5.421699576773486573e-02
1.582369884418793615e-01 -5.421699576773486573e-02
1.590242371405951594e-01 -5.421699576773486573e-02
1.598114858393109849e-01 -5.421699576773486573e-02
1.605987345380268105e-01 -5.421699576773486573e-02
1.613859832367426361e-01 -5.421699576773486573e-02
1.621732319354584340e-01 -5.421699576773486573e-02
1.629604806341742596e-01 -5.421699576773486573e-02
1.637477293328900851e-01 -5.421699576773486573e-02
1.645349780316058830e-01 -5.421699576773486573e-02
1.653222267303217086e-01 -5.421699576773486573e-02
1.661094754290375342e-01 -5.421699576773486573e-02
1.668967241277533597e-01 -5.421699576773486573e-02
1.676839728264691576e-01 -5.421699576773486573e-02
1.684712215251849832e-01 -5.421699576773486573e-02
1.692584702239008088e-01 -5.421699576773486573e-02
1.700457189226166066e-01 -5.421699576773486573e-02
1.708329676213324322e-01 -5.421699576773486573e-02
1.716202163200482578e-01 -5.421699576773486573e-02
1.724074650187640834e-01 -5.421699576773486573e-02
1.731947137174798812e-01 -5.421699576773486573e-02
1.739819624161957068e-01 -5.421699576773486573e-02
1.747692111149115324e-01 -5.421699576773486573e-02
1.755564598136273302e-01 -5.421699576773486573e-02
1.763437085123431558e-01 -5.421699576773486573e-02
1.771309572110589814e-01 -5.421699576773486573e-02
1.779182059097748070e-01 -5.421699576773486573e-02
1.787054546084906048e-01 -5.421699576773486573e-02
1.794927033072064304e-01 -5.421699576773486573e-02
1.802799520059222560e-01 -5.421699576773486573e-02
1.810672007046380538e-01 -5.421699576773486573e-02
1.818544494033538794e-01 -5.421699576773486573e-02
1.826416981020697050e-01 -5.421699576773486573e-02
1.834289468007855306e-01 -5.421699576773486573e-02
1.842161954995013284e-01 -5.421699576773486573e-02
1.850034441982171540e-01 -5.421699576773486573e-02
1.857906928969329796e-01 -5.421699576773486573e-02
1.865779415956487775e-01 -5.421699576773486573e-02
1.873651902943646030e-01 -5.421699576773486573e-02
1.881524389930804286e-01 -5.421699576773486573e-02
1.889396876917962542e-01 -5.421699576773486573e-02
1.897269363905120521e-01 -5.421699576773486573e-02
1.905141850892278776e-01 -5.421699576773486573e-02
1.913014337879437032e-01 -5.421699576773486573e-02
1.920886824866595011e-01 -5.421699576773486573e-02
1.928759311853753267e-01 -5.421699576773486573e-02
1.936631798840911522e-01 -5.421699576773486573e-02
1.944504285828069778e-01 -5.421699576773486573e-02
1.952376772815227757e-01 -5.421699576773486573e-02
1.960249259802386013e-01 -5.421699576773486573e-02
1.968121746789544269e-01 -5.421699576773486573e-02
1.975994233776702247e-01 -5.421699576773486573e-02
1.983866720763860503e-01 -5.421699576773486573e-02
1.991739207751018759e-01 -5.421699576773486573e-02
1.999611694738177015e-01 -5.421699576773486573e-02
2.007484181725334993e-01 -5.421699576773486573e-02
2.015356668712493249e-01 -5.421699576773486573e-02
2.023229155699651505e-01 -5.421699576773486573e-02
2.031101642686809483e-01 -5.421699576773486573e-02
2.038974129673967739e-01 -5.421699576773486573e-02
2.046846616661125995e-01 -5.421699576773486573e-02
2.054719103648284251e-01 -5.421699576773486573e-02
2.062591590635442229e-01 -5.421699576773486573e-02
2.070464077622600485e-01 -5.421699576773486573e-02
2.078336564609758741e-01 -5.421699576773486573e-02
2.086209051596916719e-01 -5.421699576773486573e-02
2.094081538584074975e-01 -5.421699576773486573e-02
2.101954025571233231e-01 -5.421699576773486573e-02
2.109826512558391487e-01 -5.421699576773486573e-02
2.117698999545549465e-01 -5.421699576773486573e-02
2.125571486532707721e-01 -5.421699576773486573e-02
2.133443973519865977e-01 -5.421699576773486573e-02
2.141316460507023955e-01 -5.421699576773486573e-02
2.149188947494182211e-01 -5.421699576773486573e-02
2.157061434481340467e-01 -5.421699576773486573e-02
2.164933921468498723e-01 -5.421699576773486573e-02
2.172806408455656701e-01 -5.421699576773486573e-02
2.180678895442814957e-01 -5.421699576773486573e-02
2.188551382429973213e-01 -5.421699576773486573e-02
2.196423869417131192e-01 -5.421699576773486573e-02
2.204296356404289448e-01 -5.421699576773486573e-02
2.212168843391447703e-01 -5.421699576773486573e-02
2.220041330378605959e-01 -5.421699576773486573e-02
2.227913817365763938e-01 -5.421699576773486573e-02
2.235786304352922194e-01 -5.421699576773486573e-02
2.243658791340080449e-01 -5.421699576773486573e-02
2.251531278327238428e-01 -5.421699576773486573e-02
2.259403765314396684e-01 -5.421699576773486573e-02
2.267276252301554940e-01 -5.421699576773486573e-02
2.275148739288713196e-01 -5.421699576773486573e-02
2.283021226275871174e-01 -5.421699576773486573e-02
2.290893713263029430e-01 -5.421699576773486573e-02
2.298766200250187686e-01 -5.421699576773486573e-02
2.306638687237345664e-01 -5.421699576773486573e-02
2.314511174224503920e-01 -5.421699576773486573e-02
2.322383661211662176e-01 -5.421699576773486573e-02
2.330256148198820432e-01 -5.421699576773486573e-02
2.338128635185978410e-01 -5.421699576773486573e-02
2.346001122173136666e-01 -5.421699576773486573e-02
2.353873609160294922e-01 -5.421699576773486573e-02
2.361746096147452900e-01 -5.421699576773486573e-02
2.369618583134611156e-01 -5.421699576773486573e-02
2.377491070121769412e-01 -5.421699576773486573e-02
2.385363557108927668e-01 -5.421699576773486573e-02
2.393236044096085646e-01 -5.421699576773486573e-02
2.401108531083243902e-01 -5.421699576773486573e-02
2.408981018070402158e-01 -5.421699576773486573e-02
2.416853505057560136e-01 -5.421699576773486573e-02
2.424725992044718392e-01 -5.421699576773486573e-02
2.432598479031876648e-01 -5.421699576773486573e-02
2.440470966019034904e-01 -5.421699576773486573e-02
2.448343453006192882e-01 -5.421699576773486573e-02
2.456215939993351138e-01 -5.421699576773486573e-02
2.464088426980509394e-01 -5.421699576773486573e-02
2.471960913967667373e-01 -5.421699576773442164e-02
2.479833400954825628e-01 -5.421699576773419960e-02
2.487705887941983884e-01 -5.421699576772665008e-02
2.495578374929142140e-01 -5.421699576772476270e-02
2.503450861916300396e-01 -5.421699576763783224e-02
2.511323348903458652e-01 -5.421699576761462858e-02
2.519195835890616353e-01 -5.421699576673422172e-02
2.527068322877774609e-01 -5.421699576649441354e-02
2.534940809864932865e-01 -5.421699575869332044e-02
2.542813296852091121e-01 -5.421699575650906766e-02
2.550685783839249376e-01 -5.421699569571858390e-02
2.558558270826407632e-01 -5.421699567815230214e-02
2.566430757813565888e-01 -5.421699525990197888e-02
2.574303244800723589e-01 -5.421699513466371467e-02
2.582175731787881845e-01 -5.421699258706624835e-02
2.590048218775040101e-01 -5.421699179288486103e-02
2.597920705762198357e-01 -5.421697803247582659e-02
2.605793192749356613e-01 -5.421697354216103992e-02
2.613665679736514869e-01 -5.421690759472830301e-02
2.621538166723673124e-01 -5.421688492284337801e-02
2.629410653710830825e-01 -5.421660462604960262e-02
2.637283140697989081e-01 -5.421650232686336945e-02
2.645155627685147337e-01 -5.421544756774376861e-02
2.653028114672305593e-01 -5.421503510879310817e-02
2.660900601659463849e-01 -5.421153212869611604e-02
2.668773088646622105e-01 -5.421004767211101694e-02
2.676645575633780361e-01 -5.419983102777758965e-02
2.684518062620938061e-01 -5.419507176975124629e-02
2.692390549608096317e-01 -5.416909868475161538e-02
2.700263036595254573e-01 -5.415555083298917438e-02
2.708135523582412829e-01 -5.409862883292904101e-02
2.716008010569571085e-01 -5.406454980279917777e-02
2.723880497556729341e-01 -5.395878055885883207e-02
2.731752984543887597e-01 -5.388353295096981466e-02
2.739625471531045298e-01 -5.372114674518801980e-02
2.747497958518203554e-01 -5.357662264925555640e-02
2.755370445505361809e-01 -5.337906514166435024e-02
2.763242932492520065e-01 -5.314050220981814121e-02
2.771115419479678321e-01 -5.296238596708979784e-02
2.778987906466836577e-01 -5.262891449190831850e-02
2.786860393453994833e-01 -5.251480153548548913e-02
2.794732880441152534e-01 -5.212524350559910591e-02
2.802605367428310790e-01 -5.202273617314379095e-02
2.810477854415469046e-01 -5.163799502609767167e-02
2.818350341402627302e-01 -5.135641445851524267e-02
2.826222828389785557e-01 -5.099446497660797828e-02
2.834095315376943813e-01 -5.032908225934029645e-02
2.841967802364102069e-01 -4.989687363823680499e-02
2.849840289351259770e-01 -4.887008870524323090e-02
2.857712776338418026e-01 -4.818582801753756861e-02
2.865585263325576282e-01 -4.709466316842259026e-02
2.873457750312734538e-01 -4.603137380875521600e-02
2.881330237299892794e-01 -4.508436386340453073e-02
2.889202724287051050e-01 -4.369636227155948571e-02
2.897075211274209305e-01 -4.262856890760224893e-02
2.904947698261367006e-01 -4.107083015955115268e-02
2.912820185248525262e-01 -3.941255792673270530e-02
2.920692672235683518e-01 -3.771450345750115840e-02
2.928565159222841774e-01 -3.550458112650145548e-02
2.936437646210000030e-01 -3.352836930656821757e-02
2.944310133197158286e-01 -3.131028102625532661e-02
2.952182620184316542e-01 -2.900001185249057034e-02
2.960055107171474242e-01 -2.692475534329719089e-02
2.967927594158632498e-01 -2.445448333419453224e-02
2.975800081145790754e-01 -2.206457445206766455e-02
2.983672568132949010e-01 -1.961994618598894569e-02
2.991545055120107266e-01 -1.688246070297494406e-02
2.999417542107265522e-01 -1.449369771593245204e-02
3.007290029094423778e-01 -1.211580337014461772e-02
3.015162516081581479e-01 -9.893137296843268480e-03
3.023035003068739734e-01 -8.167430874515657635e-03
3.030907490055897990e-01 -6.455000630589569077e-03
3.038779977043056246e-01 -5.054334872490295893e-03
3.046652464030214502e-01 -4.154575737322141471e-03
3.054524951017372758e-01 -3.408308669967219373e-03
3.062397438004531014e-01 -3.482780275751884425e-03
3.070269924991688715e-01 -4.230204812888938015e-03
3.078142411978846971e-01 -5.587708522811096756e-03
3.086014898966005227e-01 -7.863224666366241955e-03
3.093887385953163482e-01 -1.089220733932139140e-02
3.101759872940321738e-01 -1.456856286144303514e-02
3.109632359927479994e-01 -1.941324523228937782e-02
3.117504846914638250e-01 -2.517982913523675315e-02
3.125377333901795951e-01 -3.193368846358202173e-02
3.133249820888954207e-01 -4.002518932038745536e-02
3.141122307876112463e-01 -4.888501861859595454e-02
3.148994794863270719e-01 -5.873443828176672099e-02
3.156867281850428975e-01 -6.958833337129832763e-02
3.164739768837587230e-01 -8.126435609770821245e-02
3.172612255824745486e-01 -9.371954118268222000e-02
3.180484742811903187e-01 -1.072126988695131233e-01
3.188357229799061443e-01 -1.209745978903677965e-01
3.196229716786219699e-01 -1.351991375831549380e-01
3.204102203773377955e-01 -1.497402336866672234e-01
3.211974690760536211e-01 -1.640401709610647130e-01
3.219847177747694467e-01 -1.784136654401190514e-01
3.227719664734852723e-01 -1.924469925717293695e-01
3.235592151722010423e-01 -2.057437377643869247e-01
3.243464638709168679e-01 -2.181477684723380772e-01
3.251337125696326935e-01 -2.294207424968410791e-01
3.259209612683485191e-01 -2.391301144654276456e-01
3.267082099670643447e-01 -2.472876316112591066e-01
3.274954586657801703e-01 -2.537660941543331550e-01
3.282827073644959959e-01 -2.579852451308024541e-01
3.290699560632117660e-01 -2.599828527796590460e-01
3.298572047619275915e-01 -2.595626449499408572e-01
3.306444534606434171e-01 -2.564217812478413183e-01
3.314317021593592427e-01 -2.507429104049866408e-01
3.322189508580750683e-01 -2.425316345751225011e-01
3.330061995567908939e-01 -2.315140501089966163e-01
3.337934482555067195e-01 -2.178332202716850574e-01
3.345806969542224896e-01 -2.016605894873223503e-01
3.353679456529383152e-01 -1.829716193965267301e-01
3.361551943516541407e-01 -1.620848456833506868e-01
3.369424430503699663e-01 -1.394423292069998377e-01
3.377296917490857919e-01 -1.149367493692715625e-01
3.385169404478016175e-01 -8.896951669062169721e-02
3.393041891465174431e-01 -6.210140213111481344e-02
3.400914378452332132e-01 -3.444426357049978904e-02
3.408786865439490388e-01 -6.603041015728838836e-03
3.416659352426648644e-01 2.095983320582650578e-02
3.424531839413806900e-01 4.802453243313675735e-02
3.432404326400965155e-01 7.428789218085651846e-02
3.440276813388123411e-01 9.902431779194031947e-02
3.448149300375281667e-01 1.220264832790063370e-01
3.456021787362439368e-01 1.429526109647760723e-01
3.463894274349597624e-01 1.613251288171269060e-01
3.471766761336755880e-01 1.770672734401057546e-01
3.479639248323914136e-01 1.900260273285097057e-01
3.487511735311072392e-01 1.997747239712361900e-01
3.495384222298230648e-01 2.061443988231588254e-01
3.503256709285388903e-01 2.093049887040208112e-01
3.511129196272546604e-01 2.090880383554003519e-01
3.519001683259704860e-01 2.055724495986728240e-01
3.526874170246863116e-01 1.990152848977602140e-01
3.534746657234021372e-01 1.893420668595289236e-01
3.542619144221179628e-01 1.766520890292422319e-01
3.550491631208337884e-01 1.614605064828493752e-01
3.558364118195496140e-01 1.440217426531689160e-01
3.566236605182653840e-01 1.244958756110745579e-01
3.574109092169812096e-01 1.033361705232633820e-01
3.581981579156970352e-01 8.086912646588917397e-02
3.589854066144128608e-01 5.731003281843527475e-02
3.597726553131286864e-01 3.321123416095206338e-02
3.605599040118445120e-01 9.062618004044287190e-03
3.613471527105603376e-01 -1.507266410097285458e-02
3.621344014092761077e-01 -3.881718440753012533e-02
3.629216501079919333e-01 -6.168980587657590942e-02
3.637088988067077588e-01 -8.350838906318835964e-02
3.644961475054235844e-01 -1.040209759451852234e-01
3.652833962041394100e-01 -1.228846776742968938e-01
3.660706449028552356e-01 -1.400610199549642276e-01
3.668578936015710612e-01 -1.555278256661608571e-01
3.676451423002868313e-01 -1.689182231857309091e-01
3.684323909990026569e-01 -1.801611901678404903e-01
3.692196396977184825e-01 -1.894736364496679704e-01
3.700068883964343081e-01 -1.967720853105232592e-01
3.707941370951501336e-01 -2.020292899117340779e-01
3.715813857938659592e-01 -2.053458806761623290e-01
3.723686344925817848e-01 -2.067311868102521544e-01
3.731558831912975549e-01 -2.060816726419886225e-01
3.739431318900133805e-01 -2.037950910873159716e-01
3.747303805887292061e-01 -2.000666002325310888e-01
3.755176292874450317e-01 -1.949357247770203694e-01
3.763048779861608573e-01 -1.886663822994906203e-01
3.770921266848766829e-01 -1.817078229933316580e-01
3.778793753835925084e-01 -1.741151207176164784e-01
3.786666240823082785e-01 -1.659289995997932365e-01
3.794538727810241041e-01 -1.573548917173128725e-01
3.802411214797399297e-01 -1.483945477432210280e-01
3.810283701784557553e-01 -1.392288223309812167e-01
3.818156188771715809e-01 -1.303023690721111238e-01
3.826028675758874065e-01 -1.218630022469728846e-01
3.833901162746032321e-01 -1.136561711010722897e-01
3.841773649733190021e-01 -1.057982939450996529e-01
3.849646136720348277e-01 -9.852822624330315193e-02
3.857518623707506533e-01 -9.200440245946583939e-02
3.865391110694664789e-01 -8.628932596182492532e-02
3.873263597681823045e-01 -8.153092138854145521e-02
3.881136084668981301e-01 -7.749042587294985296e-02
3.889008571656139557e-01 -7.405588893771863912e-02
3.896881058643297258e-01 -7.152853051895946557e-02
3.904753545630455513e-01 -7.012826987528397726e-02
3.912626032617613769e-01 -6.959328734196601474e-02
3.920498519604772025e-01 -6.980260417737327305e-02
3.928371006591930281e-01 -7.074728471478741731e-02
