0.000000000000000000e+00 -4.693026050107518277e-02
7.872486987158176753e-04 -5.421699576773486573e-02
1.574497397431635351e-03 -5.421699576773486573e-02
2.361746096147452918e-03 -5.421699576773486573e-02
3.148994794863270701e-03 -5.421699576773486573e-02
3.936243493579088051e-03 -5.421699576773486573e-02
4.723492192294905835e-03 -5.421699576773486573e-02
5.510740891010723619e-03 -5.421699576773486573e-02
6.297989589726541403e-03 -5.421699576773486573e-02
7.085238288442359186e-03 -5.421699576773486573e-02
7.872486987158176103e-03 -5.421699576773486573e-02
8.659735685873994754e-03 -5.421699576773486573e-02
9.446984384589811670e-03 -5.421699576773486573e-02
1.023423308330563032e-02 -5.421699576773486573e-02
1.102148178202144724e-02 -5.421699576773486573e-02
1.180873048073726589e-02 -5.421699576773486573e-02
1.259597917945308281e-02 -5.421699576773486573e-02
1.338322787816889972e-02 -5.421699576773486573e-02
1.417047657688471837e-02 -5.421699576773486573e-02
1.495772527560053529e-02 -5.421699576773486573e-02
1.574497397431635221e-02 -5.421699576773486573e-02
1.653222267303217086e-02 -5.421699576773486573e-02
1.731947137174798951e-02 -5.421699576773486573e-02
1.810672007046380816e-02 -5.421699576773486573e-02
1.889396876917962334e-02 -5.421699576773486573e-02
1.968121746789544199e-02 -5.421699576773486573e-02
2.046846616661126064e-02 -5.421699576773486573e-02
2.125571486532707582e-02 -5.421699576773486573e-02
2.204296356404289448e-02 -5.421699576773486573e-02
2.283021226275871313e-02 -5.421699576773486573e-02
2.361746096147453178e-02 -5.421699576773486573e-02
2.440470966019034696e-02 -5.421699576773486573e-02
2.519195835890616561e-02 -5.421699576773486573e-02
2.597920705762198426e-02 -5.421699576773486573e-02
2.676645575633779944e-02 -5.421699576773486573e-02
2.755370445505361809e-02 -5.421699576773486573e-02
2.834095315376943675e-02 -5.421699576773486573e-02
2.912820185248525540e-02 -5.421699576773486573e-02
2.991545055120107058e-02 -5.421699576773486573e-02
3.070269924991688923e-02 -5.421699576773486573e-02
3.148994794863270441e-02 -5.421699576773486573e-02
3.227719664734852306e-02 -5.421699576773486573e-02
3.306444534606434171e-02 -5.421699576773486573e-02
3.385169404478016036e-02 -5.421699576773486573e-02
3.463894274349597902e-02 -5.421699576773486573e-02
3.542619144221179767e-02 -5.421699576773486573e-02
3.621344014092761632e-02 -5.421699576773486573e-02
3.700068883964342803e-02 -5.421699576773486573e-02
3.778793753835924668e-02 -5.421699576773486573e-02
3.857518623707506533e-02 -5.421699576773486573e-02
3.936243493579088398e-02 -5.421699576773486573e-02
4.014968363450670263e-02 -5.421699576773486573e-02
4.093693233322252129e-02 -5.421699576773486573e-02
4.172418103193833994e-02 -5.421699576773486573e-02
4.251142973065415165e-02 -5.421699576773486573e-02
4.329867842936997030e-02 -5.421699576773486573e-02
4.408592712808578895e-02 -5.421699576773486573e-02
4.487317582680160760e-02 -5.421699576773486573e-02
4.566042452551742625e-02 -5.421699576773486573e-02
4.644767322423324490e-02 -5.421699576773486573e-02
4.723492192294906356e-02 -5.421699576773486573e-02
4.802217062166487527e-02 -5.421699576773486573e-02
4.880941932038069392e-02 -5.421699576773486573e-02
4.959666801909651257e-02 -5.421699576773486573e-02
5.038391671781233122e-02 -5.421699576773486573e-02
5.117116541652814987e-02 -5.421699576773486573e-02
5.195841411524396852e-02 -5.421699576773486573e-02
5.274566281395978717e-02 -5.421699576773486573e-02
5.353291151267559889e-02 -5.421699576773486573e-02
5.432016021139141754e-02 -5.421699576773486573e-02
5.510740891010723619e-02 -5.421699576773486573e-02
5.589465760882305484e-02 -5.421699576773486573e-02
5.668190630753887349e-02 -5.421699576773486573e-02
5.746915500625469214e-02 -5.421699576773486573e-02
5.825640370497051079e-02 -5.421699576773486573e-02
5.904365240368632251e-02 -5.421699576773486573e-02
5.983090110240214116e-02 -5.421699576773486573e-02
6.061814980111795981e-02 -5.421699576773486573e-02
6.140539849983377846e-02 -5.421699576773486573e-02
6.219264719854959711e-02 -5.421699576773486573e-02
6.297989589726540882e-02 -5.421699576773486573e-02
6.376714459598123441e-02 -5.421699576773486573e-02
6.455439329469704612e-02 -5.421699576773486573e-02
6.534164199341287171e-02 -5.421699576773486573e-02
6.612889069212868343e-02 -5.421699576773486573e-02
6.691613939084450902e-02 -5.421699576773486573e-02
6.770338808956032073e-02 -5.421699576773486573e-02
6.849063678827613244e-02 -5.421699576773486573e-02
6.927788548699195803e-02 -5.421699576773486573e-02
7.006513418570776974e-02 -5.421699576773486573e-02
7.085238288442359533e-02 -5.421699576773486573e-02
7.163963158313940705e-02 -5.421699576773486573e-02
7.242688028185523264e-02 -5.421699576773486573e-02
7.321412898057104435e-02 -5.421699576773486573e-02
7.400137767928685606e-02 -5.421699576773486573e-02
7.478862637800268165e-02 -5.421699576773486573e-02
7.557587507671849336e-02 -5.421699576773486573e-02
7.636312377543431895e-02 -5.421699576773486573e-02
7.715037247415013066e-02 -5.421699576773486573e-02
7.793762117286595625e-02 -5.421699576773486573e-02
7.872486987158176797e-02 -5.421699576773486573e-02
7.951211857029757968e-02 -5.421699576773486573e-02
8.029936726901340527e-02 -5.421699576773486573e-02
8.108661596772921698e-02 -5.421699576773486573e-02
8.187386466644504257e-02 -5.421699576773486573e-02
8.266111336516085428e-02 -5.421699576773486573e-02
8.344836206387667987e-02 -5.421699576773486573e-02
8.423561076259249158e-02 -5.421699576773486573e-02
8.502285946130830330e-02 -5.421699576773486573e-02
8.581010816002412889e-02 -5.421699576773486573e-02
8.659735685873994060e-02 -5.421699576773486573e-02
8.738460555745576619e-02 -5.421699576773486573e-02
8.817185425617157790e-02 -5.421699576773486573e-02
8.895910295488740349e-02 -5.421699576773486573e-02
8.974635165360321520e-02 -5.421699576773486573e-02
9.053360035231902692e-02 -5.421699576773486573e-02
9.132084905103485251e-02 -5.421699576773486573e-02
9.210809774975066422e-02 -5.421699576773486573e-02
9.289534644846648981e-02 -5.421699576773486573e-02
9.368259514718230152e-02 -5.421699576773486573e-02
9.446984384589812711e-02 -5.421699576773486573e-02
9.525709254461393882e-02 -5.421699576773486573e-02
9.604434124332975053e-02 -5.421699576773486573e-02
9.683158994204557612e-02 -5.421699576773486573e-02
9.761883864076138784e-02 -5.421699576773486573e-02
9.840608733947721343e-02 -5.421699576773486573e-02
9.919333603819302514e-02 -5.421699576773486573e-02
9.998058473690885073e-02 -5.421699576773486573e-02
1.007678334356246624e-01 -5.421699576773486573e-02
1.015550821343404742e-01 -5.421699576773486573e-02
1.023423308330562997e-01 -5.421699576773486573e-02
1.031295795317721115e-01 -5.421699576773486573e-02
1.039168282304879370e-01 -5.421699576773486573e-02
1.047040769292037488e-01 -5.421699576773486573e-02
1.054913256279195743e-01 -5.421699576773486573e-02
1.062785743266353861e-01 -5.421699576773486573e-02
1.070658230253511978e-01 -5.421699576773486573e-02
1.078530717240670234e-01 -5.421699576773486573e-02
1.086403204227828351e-01 -5.421699576773486573e-02
1.094275691214986607e-01 -5.421699576773486573e-02
1.102148178202144724e-01 -5.421699576773486573e-02
1.110020665189302980e-01 -5.421699576773486573e-02
1.117893152176461097e-01 -5.421699576773486573e-02
1.125765639163619214e-01 -5.421699576773486573e-02
1.133638126150777470e-01 -5.421699576773486573e-02
1.141510613137935587e-01 -5.421699576773486573e-02
1.149383100125093843e-01 -5.421699576773486573e-02
1.157255587112251960e-01 -5.421699576773486573e-02
1.165128074099410216e-01 -5.421699576773486573e-02
1.173000561086568333e-01 -5.421699576773486573e-02
1.180873048073726450e-01 -5.421699576773486573e-02
1.188745535060884706e-01 -5.421699576773486573e-02
1.196618022048042823e-01 -5.421699576773486573e-02
1.204490509035201079e-01 -5.421699576773486573e-02
1.212362996022359196e-01 -5.421699576773486573e-02
1.220235483009517452e-01 -5.421699576773486573e-02
1.228107969996675569e-01 -5.421699576773486573e-02
1.235980456983833686e-01 -5.421699576773486573e-02
1.243852943970991942e-01 -5.421699576773486573e-02
1.251725430958150198e-01 -5.421699576773486573e-02
1.259597917945308176e-01 -5.421699576773486573e-02
1.267470404932466432e-01 -5.421699576773486573e-02
1.275342891919624688e-01 -5.421699576773486573e-02
1.283215378906782944e-01 -5.421699576773486573e-02
1.291087865893940922e-01 -5.421699576773486573e-02
1.298960352881099178e-01 -5.421699576773486573e-02
1.306832839868257434e-01 -5.421699576773486573e-02
1.314705326855415413e-01 -5.421699576773486573e-02
1.322577813842573669e-01 -5.421699576773486573e-02
1.330450300829731924e-01 -5.421699576773486573e-02
1.338322787816890180e-01 -5.421699576773486573e-02
1.346195274804048159e-01 -5.421699576773486573e-02
1.354067761791206415e-01 -5.421699576773486573e-02
1.361940248778364670e-01 -5.421699576773486573e-02
1.369812735765522649e-01 -5.421699576773486573e-02
1.377685222752680905e-01 -5.421699576773486573e-02
1.385557709739839161e-01 -5.421699576773486573e-02
1.393430196726997417e-01 -5.421699576773486573e-02
1.401302683714155395e-01 -5.421699576773486573e-02
1.409175170701313651e-01 -5.421699576773486573e-02
1.417047657688471907e-01 -5.421699576773486573e-02
1.424920144675629885e-01 -5.421699576773486573e-02
1.432792631662788141e-01 -5.421699576773486573e-02
1.440665118649946397e-01 -5.421699576773486573e-02
1.448537605637104653e-01 -5.421699576773486573e-02
1.456410092624262631e-01 -5.421699576773486573e-02
1.464282579611420887e-01 -5.421699576773486573e-02
1.472155066598579143e-01 -5.421699576773486573e-02
1.480027553585737121e-01 -5.421699576773486573e-02
1.487900040572895377e-01 -5.421699576773486573e-02
1.495772527560053633e-01 -5.421699576773486573e-02
1.503645014547211889e-01 -5.421699576773486573e-02
1.511517501534369867e-01 -5.421699576773486573e-02
1.519389988521528123e-01 -5.421699576773486573e-02
1.527262475508686379e-01 -5.421699576773486573e-02
1.535134962495844357e-01 -5.421699576773486573e-02
1.543007449483002613e-01 -5.421699576773486573e-02
1.550879936470160869e-01 -5.421699576773486573e-02
1.558752423457319125e-01 -5.421699576773486573e-02
1.566624910444477103e-01 -5.421699576773486573e-02
1.574497397431635359e-01 -5.421699576773486573e-02
1.582369884418793615e-01 -5.421699576773486573e-02
1.590242371405951594e-01 -5.421699576773486573e-02
1.598114858393109849e-01 -5.421699576773486573e-02
1.605987345380268105e-01 -5.421699576773486573e-02
1.613859832367426361e-01 -5.421699576773486573e-02
1.621732319354584340e-01 -5.421699576773486573e-02
1.629604806341742596e-01 -5.421699576773486573e-02
1.637477293328900851e-01 -5.421699576773486573e-02
1.645349780316058830e-01 -5.421699576773486573e-02
1.653222267303217086e-01 -5.421699576773486573e-02
1.661094754290375342e-01 -5.421699576773486573e-02
1.668967241277533597e-01 -5.421699576773486573e-02
1.676839728264691576e-01 -5.421699576773486573e-02
1.684712215251849832e-01 -5.421699576773486573e-02
1.692584702239008088e-01 -5.421699576773486573e-02
1.700457189226166066e-01 -5.421699576773486573e-02
1.708329676213324322e-01 -5.421699576773486573e-02
1.716202163200482578e-01 -5.421699576773486573e-02
1.724074650187640834e-01 -5.421699576773486573e-02
1.731947137174798812e-01 -5.421699576773486573e-02
1.739819624161957068e-01 -5.421699576773486573e-02
1.747692111149115324e-01 -5.421699576773486573e-02
1.755564598136273302e-01 -5.421699576773486573e-02
1.763437085123431558e-01 -5.421699576773486573e-02
1.771309572110589814e-01 -5.421699576773486573e-02
1.779182059097748070e-01 -5.421699576773486573e-02
1.787054546084906048e-01 -5.421699576773486573e-02
1.794927033072064304e-01 -5.421699576773486573e-02
1.802799520059222560e-01 -5.421699576773486573e-02
1.810672007046380538e-01 -5.421699576773486573e-02
1.818544494033538794e-01 -5.421699576773486573e-02
1.826416981020697050e-01 -5.421699576773486573e-02
1.834289468007855306e-01 -5.421699576773486573e-02
1.842161954995013284e-01 -5.421699576773486573e-02
1.850034441982171540e-01 -5.421699576773486573e-02
1.857906928969329796e-01 -5.421699576773486573e-02
1.865779415956487775e-01 -5.421699576773486573e-02
1.873651902943646030e-01 -5.421699576773486573e-02
1.881524389930804286e-01 -5.421699576773486573e-02
1.889396876917962542e-01 -5.421699576773486573e-02
1.897269363905120521e-01 -5.421699576773486573e-02
1.905141850892278776e-01 -5.421699576773486573e-02
1.913014337879437032e-01 -5.421699576773486573e-02
1.920886824866595011e-01 -5.421699576773486573e-02
1.928759311853753267e-01 -5.421699576773486573e-02
1.936631798840911522e-01 -5.421699576773486573e-02
1.944504285828069778e-01 -5.421699576773486573e-02
1.952376772815227757e-01 -5.421699576773486573e-02
1.960249259802386013e-01 -5.421699576773486573e-02
1.968121746789544269e-01 -5.421699576773486573e-02
1.975994233776702247e-01 -5.421699576773486573e-02
1.983866720763860503e-01 -5.421699576773486573e-02
1.991739207751018759e-01 -5.421699576773486573e-02
1.999611694738177015e-01 -5.421699576773486573e-02
2.007484181725334993e-01 -5.421699576773486573e-02
2.015356668712493249e-01 -5.421699576773486573e-02
2.023229155699651505e-01 -5.421699576773486573e-02
2.031101642686809483e-01 -5.421699576773486573e-02
2.038974129673967739e-01 -5.421699576773486573e-02
2.046846616661125995e-01 -5.421699576773486573e-02
2.054719103648284251e-01 -5.421699576773486573e-02
2.062591590635442229e-01 -5.421699576773486573e-02
2.070464077622600485e-01 -5.421699576773486573e-02
2.078336564609758741e-01 -5.421699576773486573e-02
2.086209051596916719e-01 -5.421699576773486573e-02
2.094081538584074975e-01 -5.421699576773486573e-02
2.101954025571233231e-01 -5.421699576773486573e-02
2.109826512558391487e-01 -5.421699576773486573e-02
2.117698999545549465e-01 -5.421699576773486573e-02
2.125571486532707721e-01 -5.421699576773486573e-02
2.133443973519865977e-01 -5.421699576773486573e-02
2.141316460507023955e-01 -5.421699576773486573e-02
2.149188947494182211e-01 -5.421699576773486573e-02
2.157061434481340467e-01 -5.421699576773486573e-02
2.164933921468498723e-01 -5.421699576773486573e-02
2.172806408455656701e-01 -5.421699576773486573e-02
2.180678895442814957e-01 -5.421699576773486573e-02
2.188551382429973213e-01 -5.421699576773486573e-02
2.196423869417131192e-01 -5.421699576773486573e-02
2.204296356404289448e-01 -5.421699576773486573e-02
2.212168843391447703e-01 -5.421699576773486573e-02
2.220041330378605959e-01 -5.421699576773486573e-02
2.227913817365763938e-01 -5.421699576773486573e-02
2.235786304352922194e-01 -5.421699576773486573e-02
2.243658791340080449e-01 -5.421699576773486573e-02
2.251531278327238428e-01 -5.421699576773486573e-02
2.259403765314396684e-01 -5.421699576773486573e-02
2.267276252301554940e-01 -5.421699576773486573e-02
2.275148739288713196e-01 -5.421699576773486573e-02
2.283021226275871174e-01 -5.421699576773486573e-02
2.290893713263029430e-01 -5.421699576773486573e-02
2.298766200250187686e-01 -5.421699576773486573e-02
2.306638687237345664e-01 -5.421699576773486573e-02
2.314511174224503920e-01 -5.421699576773486573e-02
2.322383661211662176e-01 -5.421699576773486573e-02
2.330256148198820432e-01 -5.421699576773486573e-02
2.338128635185978410e-01 -5.421699576773486573e-02
2.346001122173136666e-01 -5.421699576773486573e-02
2.353873609160294922e-01 -5.421699576773486573e-02
2.361746096147452900e-01 -5.421699576773486573e-02
2.369618583134611156e-01 -5.421699576773486573e-02
2.377491070121769412e-01 -5.421699576773486573e-02
2.385363557108927668e-01 -5.421699576773486573e-02
2.393236044096085646e-01 -5.421699576773486573e-02
2.401108531083243902e-01 -5.421699576773486573e-02
2.408981018070402158e-01 -5.421699576773486573e-02
2.416853505057560136e-01 -5.421699576773486573e-02
2.424725992044718392e-01 -5.421699576773486573e-02
2.432598479031876648e-01 -5.421699576773486573e-02
2.440470966019034904e-01 -5.421699576773486573e-02
2.448343453006192882e-01 -5.421699576773486573e-02
2.456215939993351138e-01 -5.421699576773486573e-02
2.464088426980509394e-01 -5.421699576773453266e-02
2.471960913967667373e-01 -5.421699576773442164e-02
2.479833400954825628e-01 -5.421699576773197915e-02
2.487705887941983884e-01 -5.421699576772898155e-02
2.495578374929142140e-01 -5.421699576770588891e-02
2.503450861916300396e-01 -5.421699576768024276e-02
2.511323348903458652e-01 -5.421699576748584271e-02
2.519195835890616353e-01 -5.421699576727267988e-02
2.527068322877774609e-01 -5.421699576580729651e-02
2.534940809864932865e-01 -5.421699576422478462e-02
2.542813296852091121e-01 -5.421699575430827256e-02
2.550685783839249376e-01 -5.421699574374516661e-02
2.558558270826407632e-01 -5.421699568338733677e-02
2.566430757813565888e-01 -5.421699561988069238e-02
2.574303244800723589e-01 -5.421699528909040833e-02
2.582175731787881845e-01 -5.421699494484699677e-02
2.590048218775040101e-01 -5.421699331154605783e-02
2.597920705762198357e-01 -5.421699162800319716e-02
2.605793192749356613e-01 -5.421698436214827943e-02
2.613665679736514869e-01 -5.421697693244065253e-02
2.621538166723673124e-01 -5.421694782585650962e-02
2.629410653710830825e-01 -5.421691824758023692e-02
2.637283140697989081e-01 -5.421681336411887653e-02
2.645155627685147337e-01 -5.421670722388782782e-02
2.653028114672305593e-01 -5.421636783431793560e-02
2.660900601659463849e-01 -5.421602496218658196e-02
2.668773088646622105e-01 -5.421504105032770582e-02
2.676645575633780361e-01 -5.421404572817822842e-02
2.684518062620938061e-01 -5.421149770749889019e-02
2.692390549608096317e-01 -5.420890690277246904e-02
2.700263036595254573e-01 -5.420303269806114876e-02
2.708135523582412829e-01 -5.419699988876380825e-02
2.716008010569571085e-01 -5.418498626164347520e-02
2.723880497556729341e-01 -5.417244576606206063e-02
2.731752984543887597e-01 -5.415070291520773793e-02
2.739625471531045298e-01 -5.412744895731613770e-02
2.747497958518203554e-01 -5.409257805226030946e-02
2.755370445505361809e-01 -5.405400505527391264e-02
2.763242932492520065e-01 -5.400389257060611570e-02
2.771115419479678321e-01 -5.394605585150946681e-02
2.778987906466836577e-01 -5.387948980955070688e-02
2.786860393453994833e-01 -5.379920637165647168e-02
2.794732880441152534e-01 -5.371263414271776337e-02
2.802605367428310790e-01 -5.360526634145068581e-02
2.810477854415469046e-01 -5.348816462623839918e-02
2.818350341402627302e-01 -5.334373970647654506e-02
2.826222828389785557e-01 -5.317753663105384554e-02
2.834095315376943813e-01 -5.297878107441766904e-02
2.841967802364102069e-01 -5.274270299508265758e-02
2.849840289351259770e-01 -5.246811028960074452e-02
2.857712776338418026e-01 -5.214706506637667438e-02
2.865585263325576282e-01 -5.177636004898600319e-02
2.873457750312734538e-01 -5.136136662063639502e-02
2.881330237299892794e-01 -5.087646418769975476e-02
2.889202724287051050e-01 -5.035846245950481581e-02
2.897075211274209305e-01 -4.973943532188496164e-02
2.904947698261367006e-01 -4.910871050527909620e-02
2.912820185248525262e-01 -4.833496004136517143e-02
2.920692672235683518e-01 -4.758147253282540845e-02
2.928565159222841774e-01 -4.664193043782549619e-02
2.936437646210000030e-01 -4.572472967987717407e-02
2.944310133197158286e-01 -4.461844610515119935e-02
2.952182620184316542e-01 -4.341373708749862725e-02
2.960055107171474242e-01 -4.212218889943886158e-02
2.967927594158632498e-01 -4.046229620892538570e-02
2.975800081145790754e-01 -3.891914592064127376e-02
2.983672568132949010e-01 -3.679381726867136937e-02
2.991545055120107266e-01 -3.490948829372098050e-02
2.999417542107265522e-01 -3.260272335972180802e-02
3.007290029094423778e-01 -3.034868985532368502e-02
3.015162516081581479e-01 -2.816223522415739478e-02
3.023035003068739734e-01 -2.562206940225852936e-02
3.030907490055897990e-01 -2.341242486400652023e-02
3.038779977043056246e-01 -2.071477949089484127e-02
3.046652464030214502e-01 -1.805504704049787357e-02
3.054524951017372758e-01 -1.526485038360403390e-02
3.062397438004531014e-01 -1.221301925714890491e-02
3.070269924991688715e-01 -9.349334843785084281e-03
3.078142411978846971e-01 -6.487606554353209098e-03
3.086014898966005227e-01 -3.648981361773384613e-03
3.093887385953163482e-01 -1.133151342044502741e-03
3.101759872940321738e-01 1.485288373873405732e-03
3.109632359927479994e-01 3.981487706096853429e-03
3.117504846914638250e-01 6.190912325090058843e-03
3.125377333901795951e-01 8.365497103640207044e-03
3.133249820888954207e-01 9.991371757255729236e-03
3.141122307876112463e-01 1.112877101340092878e-02
3.148994794863270719e-01 1.195728788347660831e-02
3.156867281850428975e-01 1.215125666957228567e-02
3.164739768837587230e-01 1.198779878693456702e-02
3.172612255824745486e-01 1.144320925442454673e-02
3.180484742811903187e-01 1.012253623297110217e-02
3.188357229799061443e-01 8.173310821009138749e-03
3.196229716786219699e-01 5.488999499787761138e-03
3.204102203773377955e-01 1.880564304483911542e-03
3.211974690760536211e-01 -2.308504032346947454e-03
3.219847177747694467e-01 -7.150987210607140376e-03
3.227719664734852723e-01 -1.284610892920345915e-02
3.235592151722010423e-01 -1.922135989180162596e-02
3.243464638709168679e-01 -2.642503512689298173e-02
3.251337125696326935e-01 -3.451607299578551835e-02
3.259209612683485191e-01 -4.315274211999198251e-02
3.267082099670643447e-01 -5.232925515060160571e-02
3.274954586657801703e-01 -6.214811761152316816e-02
3.282827073644959959e-01 -7.241996744639389583e-02
3.290699560632117660e-01 -8.320142807695751763e-02
3.298572047619275915e-01 -9.452884405437400606e-02
3.306444534606434171e-01 -1.059683031067044645e-01
3.314317021593592427e-01 -1.175010542234775635e-01
3.322189508580750683e-01 -1.290862850201742740e-01
3.330061995567908939e-01 -1.406806829775456569e-01
3.337934482555067195e-01 -1.520660650416532089e-01
3.345806969542224896e-01 -1.634630449529780316e-01
3.353679456529383152e-01 -1.743230399082617010e-01
3.361551943516541407e-01 -1.845783726493409604e-01
3.369424430503699663e-01 -1.943887682188059074e-01
3.377296917490857919e-01 -2.034182362882889228e-01
3.385169404478016175e-01 -2.118720411021223216e-01
3.393041891465174431e-01 -2.194232307241000823e-01
3.400914378452332132e-01 -2.261934885055842948e-01
3.408786865439490388e-01 -2.317994778167675740e-01
3.416659352426648644e-01 -2.364862509257443790e-01
3.424531839413806900e-01 -2.403238651379175916e-01
3.432404326400965155e-01 -2.430644294905521807e-01
3.440276813388123411e-01 -2.446471883947820558e-01
3.448149300375281667e-01 -2.453593101035629331e-01
3.456021787362439368e-01 -2.448577321481583136e-01
3.463894274349597624e-01 -2.432199818545777159e-01
3.471766761336755880e-01 -2.410759542782768827e-01
3.479639248323914136e-01 -2.376799379373962795e-01
3.487511735311072392e-01 -2.331538606987895168e-01
3.495384222298230648e-01 -2.282060014715607821e-01
3.503256709285388903e-01 -2.221156269717498022e-01
3.511129196272546604e-01 -2.152347932083006343e-01
3.519001683259704860e-01 -2.079830135290624549e-01
3.526874170246863116e-01 -1.997684967838081471e-01
3.534746657234021372e-01 -1.907067121580070523e-01
3.542619144221179628e-01 -1.813657921195382938e-01
3.550491631208337884e-01 -1.715551708434658318e-01
3.558364118195496140e-01 -1.609954351243743087e-01
3.566236605182653840e-01 -1.501917047752018286e-01
3.574109092169812096e-01 -1.389200788412856546e-01
3.581981579156970352e-01 -1.270859225932360337e-01
3.589854066144128608e-01 -1.150504592006716953e-01
3.597726553131286864e-01 -1.029937909616981395e-01
3.605599040118445120e-01 -9.049561744901435389e-02
3.613471527105603376e-01 -7.767205603116755785e-02
3.621344014092761077e-01 -6.488034818172605522e-02
3.629216501079919333e-01 -5.201132135083574859e-02
3.637088988067077588e-01 -3.898089693351991514e-02
3.644961475054235844e-01 -2.616909540865997030e-02
3.652833962041394100e-01 -1.358202821670573268e-02
3.660706449028552356e-01 -9.429211833452688651e-04
3.668578936015710612e-01 1.134283347491504834e-02
3.676451423002868313e-01 2.309346670348344510e-02
3.684323909990026569e-01 3.457093706346037187e-02
3.692196396977184825e-01 4.559393848816672978e-02
3.700068883964343081e-01 5.577161658156026824e-02
3.707941370951501336e-01 6.517846609882127495e-02
3.715813857938659592e-01 7.390972365362658003e-02
3.723686344925817848e-01 8.169861561058189281e-02
3.731558831912975549e-01 8.845708166866028677e-02
3.739431318900133805e-01 9.430994336917053467e-02
3.747303805887292061e-01 9.906885722915803605e-02
3.755176292874450317e-01 1.024557527081551012e-01
3.763048779861608573e-01 1.046694368159468702e-01
3.770921266848766829e-01 1.058235730851422307e-01
3.778793753835925084e-01 1.057114374126457701e-01
3.786666240823082785e-01 1.043369188969256456e-01
3.794538727810241041e-01 1.017963653226496845e-01
3.802411214797399297e-01 9.805563133124395314e-02
3.810283701784557553e-01 9.312985662745898452e-02
3.818156188771715809e-01 8.727099923347725330e-02
3.826028675758874065e-01 8.055387799601798626e-02
3.833901162746032321e-01 7.287966814507962354e-02
3.841773649733190021e-01 6.434518045324288948e-02
3.849646136720348277e-01 5.525089407595862312e-02
3.857518623707506533e-01 4.576561440625792621e-02
3.865391110694664789e-01 3.588725799853298426e-02
3.873263597681823045e-01 2.568735648532172178e-02
3.881136084668981301e-01 1.538663935408379757e-02
3.889008571656139557e-01 5.226439054400788820e-03
3.896881058643297258e-01 -4.725300937513443600e-03
3.904753545630455513e-01 -1.433396688599331004e-02
3.912626032617613769e-01 -2.352629095382730018e-02
3.920498519604772025e-01 -3.210462360101262735e-02
3.928371006591930281e-01 -4.001197101547504520e-02
