0.000000000000000000e+00 5.673379806208078691e-02
7.872486987158176753e-04 -5.421699576773486573e-02
1.574497397431635351e-03 -5.421699576773486573e-02
2.361746096147452918e-03 -5.421699576773486573e-02
3.148994794863270701e-03 -5.421699576773486573e-02
3.936243493579088051e-03 -5.421699576773486573e-02
4.723492192294905835e-03 -5.421699576773486573e-02
5.510740891010723619e-03 -5.421699576773486573e-02
6.297989589726541403e-03 -5.421699576773486573e-02
7.085238288442359186e-03 -5.421699576773486573e-02
7.872486987158176103e-03 -5.421699576773486573e-02
8.659735685873994754e-03 -5.421699576773486573e-02
9.446984384589811670e-03 -5.421699576773486573e-02
1.023423308330563032e-02 -5.421699576773486573e-02
1.102148178202144724e-02 -5.421699576773486573e-02
1.180873048073726589e-02 -5.421699576773486573e-02
1.259597917945308281e-02 -5.421699576773486573e-02
1.338322787816889972e-02 -5.421699576773486573e-02
1.417047657688471837e-02 -5.421699576773486573e-02
1.495772527560053529e-02 -5.421699576773486573e-02
1.574497397431635221e-02 -5.421699576773486573e-02
1.653222267303217086e-02 -5.421699576773486573e-02
1.731947137174798951e-02 -5.421699576773486573e-02
1.810672007046380816e-02 -5.421699576773486573e-02
1.889396876917962334e-02 -5.421699576773486573e-02
1.968121746789544199e-02 -5.421699576773486573e-02
2.046846616661126064e-02 -5.421699576773486573e-02
2.125571486532707582e-02 -5.421699576773486573e-02
2.204296356404289448e-02 -5.421699576773486573e-02
2.283021226275871313e-02 -5.421699576773486573e-02
2.361746096147453178e-02 -5.421699576773486573e-02
2.440470966019034696e-02 -5.421699576773486573e-02
2.519195835890616561e-02 -5.421699576773486573e-02
2.597920705762198426e-02 -5.421699576773486573e-02
2.676645575633779944e-02 -5.421699576773486573e-02
2.755370445505361809e-02 -5.421699576773486573e-02
2.834095315376943675e-02 -5.421699576773486573e-02
2.912820185248525540e-02 -5.421699576773486573e-02
2.991545055120107058e-02 -5.421699576773486573e-02
3.070269924991688923e-02 -5.421699576773486573e-02
3.148994794863270441e-02 -5.421699576773486573e-02
3.227719664734852306e-02 -5.421699576773486573e-02
3.306444534606434171e-02 -5.421699576773486573e-02
3.385169404478016036e-02 -5.421699576773486573e-02
3.463894274349597902e-02 -5.421699576773486573e-02
3.542619144221179767e-02 -5.421699576773486573e-02
3.621344014092761632e-02 -5.421699576773486573e-02
3.700068883964342803e-02 -5.421699576773486573e-02
3.778793753835924668e-02 -5.421699576773486573e-02
3.857518623707506533e-02 -5.421699576773486573e-02
3.936243493579088398e-02 -5.421699576773486573e-02
4.014968363450670263e-02 -5.421699576773486573e-02
4.093693233322252129e-02 -5.421699576773486573e-02
4.172418103193833994e-02 -5.421699576773486573e-02
4.251142973065415165e-02 -5.421699576773486573e-02
4.329867842936997030e-02 -5.421699576773486573e-02
4.408592712808578895e-02 -5.421699576773486573e-02
4.487317582680160760e-02 -5.421699576773486573e-02
4.566042452551742625e-02 -5.421699576773486573e-02
4.644767322423324490e-02 -5.421699576773486573e-02
4.723492192294906356e-02 -5.421699576773486573e-02
4.802217062166487527e-02 -5.421699576773486573e-02
4.880941932038069392e-02 -5.421699576773486573e-02
4.959666801909651257e-02 -5.421699576773486573e-02
5.038391671781233122e-02 -5.421699576773486573e-02
5.117116541652814987e-02 -5.421699576773486573e-02
5.195841411524396852e-02 -5.421699576773486573e-02
5.274566281395978717e-02 -5.421699576773486573e-02
5.353291151267559889e-02 -5.421699576773486573e-02
5.432016021139141754e-02 -5.421699576773486573e-02
5.510740891010723619e-02 -5.421699576773486573e-02
5.589465760882305484e-02 -5.421699576773486573e-02
5.668190630753887349e-02 -5.421699576773486573e-02
5.746915500625469214e-02 -5.421699576773486573e-02
5.825640370497051079e-02 -5.421699576773486573e-02
5.904365240368632251e-02 -5.421699576773486573e-02
5.983090110240214116e-02 -5.421699576773486573e-02
6.061814980111795981e-02 -5.421699576773486573e-02
6.140539849983377846e-02 -5.421699576773486573e-02
6.219264719854959711e-02 -5.421699576773486573e-02
6.297989589726540882e-02 -5.421699576773486573e-02
6.376714459598123441e-02 -5.421699576773486573e-02
6.455439329469704612e-02 -5.421699576773486573e-02
6.534164199341287171e-02 -5.421699576773486573e-02
6.612889069212868343e-02 -5.421699576773486573e-02
6.691613939084450902e-02 -5.421699576773486573e-02
6.770338808956032073e-02 -5.421699576773486573e-02
6.849063678827613244e-02 -5.421699576773486573e-02
6.927788548699195803e-02 -5.421699576773486573e-02
7.006513418570776974e-02 -5.421699576773486573e-02
7.085238288442359533e-02 -5.421699576773486573e-02
7.163963158313940705e-02 -5.421699576773486573e-02
7.242688028185523264e-02 -5.421699576773486573e-02
7.321412898057104435e-02 -5.421699576773486573e-02
7.400137767928685606e-02 -5.421699576773486573e-02
7.478862637800268165e-02 -5.421699576773486573e-02
7.557587507671849336e-02 -5.421699576773486573e-02
7.636312377543431895e-02 -5.421699576773486573e-02
7.715037247415013066e-02 -5.421699576773486573e-02
7.793762117286595625e-02 -5.421699576773486573e-02
7.872486987158176797e-02 -5.421699576773486573e-02
7.951211857029757968e-02 -5.421699576773486573e-02
8.029936726901340527e-02 -5.421699576773486573e-02
8.108661596772921698e-02 -5.421699576773486573e-02
8.187386466644504257e-02 -5.421699576773486573e-02
8.266111336516085428e-02 -5.421699576773486573e-02
8.344836206387667987e-02 -5.421699576773486573e-02
8.423561076259249158e-02 -5.421699576773486573e-02
8.502285946130830330e-02 -5.421699576773486573e-02
8.581010816002412889e-02 -5.421699576773486573e-02
8.659735685873994060e-02 -5.421699576773486573e-02
8.738460555745576619e-02 -5.421699576773486573e-02
8.817185425617157790e-02 -5.421699576773486573e-02
8.895910295488740349e-02 -5.421699576773486573e-02
8.974635165360321520e-02 -5.421699576773486573e-02
9.053360035231902692e-02 -5.421699576773486573e-02
9.132084905103485251e-02 -5.421699576773486573e-02
9.210809774975066422e-02 -5.421699576773486573e-02
9.289534644846648981e-02 -5.421699576773486573e-02
9.368259514718230152e-02 -5.421699576773486573e-02
9.446984384589812711e-02 -5.421699576773486573e-02
9.525709254461393882e-02 -5.421699576773486573e-02
9.604434124332975053e-02 -5.421699576773486573e-02
9.683158994204557612e-02 -5.421699576773486573e-02
9.761883864076138784e-02 -5.421699576773486573e-02
9.840608733947721343e-02 -5.421699576773486573e-02
9.919333603819302514e-02 -5.421699576773486573e-02
9.998058473690885073e-02 -5.421699576773486573e-02
1.007678334356246624e-01 -5.421699576773486573e-02
1.015550821343404742e-01 -5.421699576773486573e-02
1.023423308330562997e-01 -5.421699576773486573e-02
1.031295795317721115e-01 -5.421699576773486573e-02
1.039168282304879370e-01 -5.421699576773486573e-02
1.047040769292037488e-01 -5.421699576773486573e-02
1.054913256279195743e-01 -5.421699576773486573e-02
1.062785743266353861e-01 -5.421699576773486573e-02
1.070658230253511978e-01 -5.421699576773486573e-02
1.078530717240670234e-01 -5.421699576773486573e-02
1.086403204227828351e-01 -5.421699576773486573e-02
1.094275691214986607e-01 -5.421699576773486573e-02
1.102148178202144724e-01 -5.421699576773486573e-02
1.110020665189302980e-01 -5.421699576773486573e-02
1.117893152176461097e-01 -5.421699576773486573e-02
1.125765639163619214e-01 -5.421699576773486573e-02
1.133638126150777470e-01 -5.421699576773486573e-02
1.141510613137935587e-01 -5.421699576773486573e-02
1.149383100125093843e-01 -5.421699576773486573e-02
1.157255587112251960e-01 -5.421699576773486573e-02
1.165128074099410216e-01 -5.421699576773486573e-02
1.173000561086568333e-01 -5.421699576773486573e-02
1.180873048073726450e-01 -5.421699576773486573e-02
1.188745535060884706e-01 -5.421699576773486573e-02
1.196618022048042823e-01 -5.421699576773486573e-02
1.204490509035201079e-01 -5.421699576773486573e-02
1.212362996022359196e-01 -5.421699576773486573e-02
1.220235483009517452e-01 -5.421699576773486573e-02
1.228107969996675569e-01 -5.421699576773486573e-02
1.235980456983833686e-01 -5.421699576773486573e-02
1.243852943970991942e-01 -5.421699576773486573e-02
1.251725430958150198e-01 -5.421699576773486573e-02
1.259597917945308176e-01 -5.421699576773486573e-02
1.267470404932466432e-01 -5.421699576773486573e-02
1.275342891919624688e-01 -5.421699576773486573e-02
1.283215378906782944e-01 -5.421699576773486573e-02
1.291087865893940922e-01 -5.421699576773486573e-02
1.298960352881099178e-01 -5.421699576773486573e-02
1.306832839868257434e-01 -5.421699576773486573e-02
1.314705326855415413e-01 -5.421699576773486573e-02
1.322577813842573669e-01 -5.421699576773486573e-02
1.330450300829731924e-01 -5.421699576773486573e-02
1.338322787816890180e-01 -5.421699576773486573e-02
1.346195274804048159e-01 -5.421699576773486573e-02
1.354067761791206415e-01 -5.421699576773486573e-02
1.361940248778364670e-01 -5.421699576773486573e-02
1.369812735765522649e-01 -5.421699576773486573e-02
1.377685222752680905e-01 -5.421699576773486573e-02
1.385557709739839161e-01 -5.421699576773486573e-02
1.393430196726997417e-01 -5.421699576773486573e-02
1.401302683714155395e-01 -5.421699576773486573e-02
1.409175170701313651e-01 -5.421699576773486573e-02
1.417047657688471907e-01 -5.421699576773486573e-02
1.424920144675629885e-01 -5.421699576773486573e-02
1.432792631662788141e-01 -5.421699576773486573e-02
1.440665118649946397e-01 -5.421699576773486573e-02
1.448537605637104653e-01 -5.421699576773486573e-02
1.456410092624262631e-01 -5.421699576773486573e-02
1.464282579611420887e-01 -5.421699576773486573e-02
1.472155066598579143e-01 -5.421699576773486573e-02
1.480027553585737121e-01 -5.421699576773486573e-02
1.487900040572895377e-01 -5.421699576773486573e-02
1.495772527560053633e-01 -5.421699576773486573e-02
1.503645014547211889e-01 -5.421699576773486573e-02
1.511517501534369867e-01 -5.421699576773486573e-02
1.519389988521528123e-01 -5.421699576773486573e-02
1.527262475508686379e-01 -5.421699576773486573e-02
1.535134962495844357e-01 -5.421699576773486573e-02
1.543007449483002613e-01 -5.421699576773486573e-02
1.550879936470160869e-01 -5.421699576773486573e-02
1.558752423457319125e-01 -5.421699576773486573e-02
1.566624910444477103e-01 -5.421699576773486573e-02
1.574497397431635359e-01 -5.421699576773486573e-02
1.582369884418793615e-01 -5.421699576773486573e-02
1.590242371405951594e-01 -5.421699576773486573e-02
1.598114858393109849e-01 -5.421699576773486573e-02
1.605987345380268105e-01 -5.421699576773486573e-02
1.613859832367426361e-01 -5.421699576773486573e-02
1.621732319354584340e-01 -5.421699576773486573e-02
1.629604806341742596e-01 -5.421699576773486573e-02
1.637477293328900851e-01 -5.421699576773486573e-02
1.645349780316058830e-01 -5.421699576773486573e-02
1.653222267303217086e-01 -5.421699576773486573e-02
1.661094754290375342e-01 -5.421699576773486573e-02
1.668967241277533597e-01 -5.421699576773486573e-02
1.676839728264691576e-01 -5.421699576773486573e-02
1.684712215251849832e-01 -5.421699576773486573e-02
1.692584702239008088e-01 -5.421699576773486573e-02
1.700457189226166066e-01 -5.421699576773486573e-02
1.708329676213324322e-01 -5.421699576773486573e-02
1.716202163200482578e-01 -5.421699576773486573e-02
1.724074650187640834e-01 -5.421699576773486573e-02
1.731947137174798812e-01 -5.421699576773486573e-02
1.739819624161957068e-01 -5.421699576773486573e-02
1.747692111149115324e-01 -5.421699576773486573e-02
1.755564598136273302e-01 -5.421699576773486573e-02
1.763437085123431558e-01 -5.421699576773486573e-02
1.771309572110589814e-01 -5.421699576773486573e-02
1.779182059097748070e-01 -5.421699576773486573e-02
1.787054546084906048e-01 -5.421699576773486573e-02
1.794927033072064304e-01 -5.421699576773486573e-02
1.802799520059222560e-01 -5.421699576773486573e-02
1.810672007046380538e-01 -5.421699576773486573e-02
1.818544494033538794e-01 -5.421699576773486573e-02
1.826416981020697050e-01 -5.421699576773486573e-02
1.834289468007855306e-01 -5.421699576773486573e-02
1.842161954995013284e-01 -5.421699576773486573e-02
1.850034441982171540e-01 -5.421699576773486573e-02
1.857906928969329796e-01 -5.421699576773486573e-02
1.865779415956487775e-01 -5.421699576773486573e-02
1.873651902943646030e-01 -5.421699576773486573e-02
1.881524389930804286e-01 -5.421699576773486573e-02
1.889396876917962542e-01 -5.421699576773486573e-02
1.897269363905120521e-01 -5.421699576773486573e-02
1.905141850892278776e-01 -5.421699576773486573e-02
1.913014337879437032e-01 -5.421699576773486573e-02
1.920886824866595011e-01 -5.421699576773486573e-02
1.928759311853753267e-01 -5.421699576773486573e-02
1.936631798840911522e-01 -5.421699576773486573e-02
1.944504285828069778e-01 -5.421699576773486573e-02
1.952376772815227757e-01 -5.421699576773486573e-02
1.960249259802386013e-01 -5.421699576773486573e-02
1.968121746789544269e-01 -5.421699576773486573e-02
1.975994233776702247e-01 -5.421699576773486573e-02
1.983866720763860503e-01 -5.421699576773486573e-02
1.991739207751018759e-01 -5.421699576773486573e-02
1.999611694738177015e-01 -5.421699576773486573e-02
2.007484181725334993e-01 -5.421699576773486573e-02
2.015356668712493249e-01 -5.421699576773486573e-02
2.023229155699651505e-01 -5.421699576773486573e-02
2.031101642686809483e-01 -5.421699576773486573e-02
2.038974129673967739e-01 -5.421699576773486573e-02
2.046846616661125995e-01 -5.421699576773486573e-02
2.054719103648284251e-01 -5.421699576773486573e-02
2.062591590635442229e-01 -5.421699576773486573e-02
2.070464077622600485e-01 -5.421699576773486573e-02
2.078336564609758741e-01 -5.421699576773486573e-02
2.086209051596916719e-01 -5.421699576773486573e-02
2.094081538584074975e-01 -5.421699576773486573e-02
2.101954025571233231e-01 -5.421699576773486573e-02
2.109826512558391487e-01 -5.421699576773486573e-02
2.117698999545549465e-01 -5.421699576773486573e-02
2.125571486532707721e-01 -5.421699576773486573e-02
2.133443973519865977e-01 -5.421699576773486573e-02
2.141316460507023955e-01 -5.421699576773486573e-02
2.149188947494182211e-01 -5.421699576773486573e-02
2.157061434481340467e-01 -5.421699576773486573e-02
2.164933921468498723e-01 -5.421699576773486573e-02
2.172806408455656701e-01 -5.421699576773486573e-02
2.180678895442814957e-01 -5.421699576773486573e-02
2.188551382429973213e-01 -5.421699576773486573e-02
2.196423869417131192e-01 -5.421699576773486573e-02
2.204296356404289448e-01 -5.421699576773486573e-02
2.212168843391447703e-01 -5.421699576773486573e-02
2.220041330378605959e-01 -5.421699576773486573e-02
2.227913817365763938e-01 -5.421699576773486573e-02
2.235786304352922194e-01 -5.421699576773486573e-02
2.243658791340080449e-01 -5.421699576773486573e-02
2.251531278327238428e-01 -5.421699576773486573e-02
2.259403765314396684e-01 -5.421699576773486573e-02
2.267276252301554940e-01 -5.421699576773486573e-02
2.275148739288713196e-01 -5.421699576773486573e-02
2.283021226275871174e-01 -5.421699576773486573e-02
2.290893713263029430e-01 -5.421699576773486573e-02
2.298766200250187686e-01 -5.421699576773486573e-02
2.306638687237345664e-01 -5.421699576773486573e-02
2.314511174224503920e-01 -5.421699576773486573e-02
2.322383661211662176e-01 -5.421699576773486573e-02
2.330256148198820432e-01 -5.421699576773486573e-02
2.338128635185978410e-01 -5.421699576773486573e-02
2.346001122173136666e-01 -5.421699576773486573e-02
2.353873609160294922e-01 -5.421699576773486573e-02
2.361746096147452900e-01 -5.421699576773486573e-02
2.369618583134611156e-01 -5.421699576773486573e-02
2.377491070121769412e-01 -5.421699576773486573e-02
2.385363557108927668e-01 -5.421699576773486573e-02
2.393236044096085646e-01 -5.421699576773486573e-02
2.401108531083243902e-01 -5.421699576773486573e-02
2.408981018070402158e-01 -5.421699576773486573e-02
2.416853505057560136e-01 -5.421699576773486573e-02
2.424725992044718392e-01 -5.421699576773486573e-02
2.432598479031876648e-01 -5.421699576773486573e-02
2.440470966019034904e-01 -5.421699576773486573e-02
2.448343453006192882e-01 -5.421699576773486573e-02
2.456215939993351138e-01 -5.421699576773486573e-02
2.464088426980509394e-01 -5.421699576773486573e-02
2.471960913967667373e-01 -5.421699576773486573e-02
2.479833400954825628e-01 -5.421699576773486573e-02
2.487705887941983884e-01 -5.421699576773486573e-02
2.495578374929142140e-01 -5.421699576773486573e-02
2.503450861916300396e-01 -5.421699576773486573e-02
2.511323348903458652e-01 -5.421699576773486573e-02
2.519195835890616353e-01 -5.421699576773486573e-02
2.527068322877774609e-01 -5.421699576773486573e-02
2.534940809864932865e-01 -5.421699576773486573e-02
2.542813296852091121e-01 -5.421699576773486573e-02
2.550685783839249376e-01 -5.421699576773486573e-02
2.558558270826407632e-01 -5.421699576773486573e-02
2.566430757813565888e-01 -5.421699576773486573e-02
2.574303244800723589e-01 -5.421699576773475471e-02
2.582175731787881845e-01 -5.421699576773442164e-02
2.590048218775040101e-01 -5.421699576773353346e-02
2.597920705762198357e-01 -5.421699576773131302e-02
2.605793192749356613e-01 -5.421699576772553986e-02
2.613665679736514869e-01 -5.421699576771121798e-02
2.621538166723673124e-01 -5.421699576767569084e-02
2.629410653710830825e-01 -5.421699576758931549e-02
2.637283140697989081e-01 -5.421699576738081561e-02
2.645155627685147337e-01 -5.421699576688443489e-02
2.653028114672305593e-01 -5.421699576571759049e-02
2.660900601659463849e-01 -5.421699576300920143e-02
2.668773088646622105e-01 -5.421699575680138938e-02
2.676645575633780361e-01 -5.421699574275240519e-02
2.684518062620938061e-01 -5.421699571136195939e-02
2.692390549608096317e-01 -5.421699564213411371e-02
2.700263036595254573e-01 -5.421699549147751540e-02
2.708135523582412829e-01 -5.421699516805755792e-02
2.716008010569571085e-01 -5.421699448344552419e-02
2.723880497556729341e-01 -5.421699305512295286e-02
2.731752984543887597e-01 -5.421699011950964486e-02
2.739625471531045298e-01 -5.421698417884790455e-02
2.747497958518203554e-01 -5.421697234850264557e-02
2.755370445505361809e-01 -5.421694917759223298e-02
2.763242932492520065e-01 -5.421690456827110705e-02
2.771115419479678321e-01 -5.421682019628581983e-02
2.778987906466836577e-01 -5.421666351538356743e-02
2.786860393453994833e-01 -5.421637799523881807e-02
2.794732880441152534e-01 -5.421586769818143026e-02
2.802605367428310790e-01 -5.421497368770933356e-02
2.810477854415469046e-01 -5.421343918361676284e-02
2.818350341402627302e-01 -5.421086002485264732e-02
2.826222828389785557e-01 -5.420661717194485973e-02
2.834095315376943813e-01 -5.419978906737854540e-02
2.841967802364102069e-01 -5.418904409609026640e-02
2.849840289351259770e-01 -5.417251746786755362e-02
2.857712776338418026e-01 -5.414768257467439394e-02
2.865585263325576282e-01 -5.411123380036853003e-02
2.873457750312734538e-01 -5.405900441480782082e-02
2.881330237299892794e-01 -5.398594739760553818e-02
2.889202724287051050e-01 -5.388620582450021068e-02
2.897075211274209305e-01 -5.375329024620967289e-02
2.904947698261367006e-01 -5.358036109579733530e-02
2.912820185248525262e-01 -5.336058627223305706e-02
2.920692672235683518e-01 -5.308751066601169466e-02
2.928565159222841774e-01 -5.275534690561567430e-02
2.936437646210000030e-01 -5.235908585970794338e-02
2.944310133197158286e-01 -5.189433913533580967e-02
2.952182620184316542e-01 -5.135686948882334235e-02
2.960055107171474242e-01 -5.074184502639400574e-02
2.967927594158632498e-01 -5.004292787757169680e-02
2.975800081145790754e-01 -4.925137263473367000e-02
2.983672568132949010e-01 -4.835531414748461820e-02
2.991545055120107266e-01 -4.733939496207106856e-02
2.999417542107265522e-01 -4.618474578907860728e-02
3.007290029094423778e-01 -4.486926112592359850e-02
3.015162516081581479e-01 -4.336796639179996138e-02
3.023035003068739734e-01 -4.165336155152066233e-02
3.030907490055897990e-01 -3.969567503545101683e-02
3.038779977043056246e-01 -3.746314153225660526e-02
3.046652464030214502e-01 -3.492257059593395496e-02
3.054524951017372758e-01 -3.204034930400878611e-02
3.062397438004531014e-01 -2.878394696825326005e-02
3.070269924991688715e-01 -2.512367738242926585e-02
3.078142411978846971e-01 -2.103411382909703420e-02
3.086014898966005227e-01 -1.649465045245956940e-02
3.093887385953163482e-01 -1.148905663249633058e-02
3.101759872940321738e-01 -6.004455517880646909e-03
3.109632359927479994e-01 -3.046460466671341294e-05
3.117504846914638250e-01 6.440636430592894257e-03
3.125377333901795951e-01 1.341220425026601326e-02
3.133249820888954207e-01 2.088075487030871535e-02
3.141122307876112463e-01 2.883359084721037746e-02
3.148994794863270719e-01 3.724809522142757956e-02
3.156867281850428975e-01 4.609276166548981202e-02
3.164739768837587230e-01 5.532865289592447944e-02
3.172612255824745486e-01 6.490896083474129163e-02
3.180484742811903187e-01 7.477472397123618997e-02
3.188357229799061443e-01 8.484679452170484915e-02
3.196229716786219699e-01 9.501706480849247960e-02
3.204102203773377955e-01 1.051440457254271266e-01
3.211974690760536211e-01 1.150555057689219840e-01
3.219847177747694467e-01 1.245593512539286962e-01
3.227719664734852723e-01 1.334576085489052044e-01
3.235592151722010423e-01 1.415568413038554851e-01
3.243464638709168679e-01 1.486691227249468117e-01
3.251337125696326935e-01 1.546022202307568705e-01
3.259209612683485191e-01 1.591449650342269262e-01
3.267082099670643447e-01 1.620581775795695290e-01
3.274954586657801703e-01 1.630770287806251329e-01
3.282827073644959959e-01 1.619251148534115448e-01
3.290699560632117660e-01 1.583327916374752675e-01
3.298572047619275915e-01 1.520519902091019837e-01
3.306444534606434171e-01 1.428601985773678695e-01
3.314317021593592427e-01 1.305550910243495899e-01
3.322189508580750683e-01 1.149497130308319015e-01
3.330061995567908939e-01 9.587646297235652426e-02
3.337934482555067195e-01 7.320051876869659857e-02
3.345806969542224896e-01 4.683770921729291103e-02
3.353679456529383152e-01 1.676775544756203828e-02
3.361551943516541407e-01 -1.696850700658125710e-02
3.369424430503699663e-01 -5.427959173355456635e-02
3.377296917490857919e-01 -9.503160262895649080e-02
3.385169404478016175e-01 -1.390430484309431725e-01
3.393041891465174431e-01 -1.860665083988785051e-01
3.400914378452332132e-01 -2.357688164306631640e-01
3.408786865439490388e-01 -2.877251348174503232e-01
3.416659352426648644e-01 -3.414337698568571389e-01
3.424531839413806900e-01 -3.963443215180669776e-01
3.432404326400965155e-01 -4.518777771172483027e-01
3.440276813388123411e-01 -5.074268817078846361e-01
3.448149300375281667e-01 -5.623393779183285535e-01
3.456021787362439368e-01 -6.159059219672764485e-01
3.463894274349597624e-01 -6.673729778771411159e-01
3.471766761336755880e-01 -7.159796250131257311e-01
3.479639248323914136e-01 -7.609943193235042536e-01
3.487511735311072392e-01 -8.017246392351884410e-01
3.495384222298230648e-01 -8.374973192999844995e-01
3.503256709285388903e-01 -8.676386658058795609e-01
3.511129196272546604e-01 -8.914895460107201686e-01
3.519001683259704860e-01 -9.084607151978004724e-01
3.526874170246863116e-01 -9.180925305419236349e-01
3.534746657234021372e-01 -9.200711556863527818e-01
3.542619144221179628e-01 -9.141891720461232662e-01
3.550491631208337884e-01 -9.002844412541490815e-01
3.558364118195496140e-01 -8.782189929123958017e-01
3.566236605182653840e-01 -8.479251381880024141e-01
3.574109092169812096e-01 -8.094862149052847178e-01
3.581981579156970352e-01 -7.631855716669175838e-01
3.589854066144128608e-01 -7.094713807725564481e-01
3.597726553131286864e-01 -6.488749671510075645e-01
3.605599040118445120e-01 -5.819498791508950220e-01
3.613471527105603376e-01 -5.092774443956147312e-01
3.621344014092761077e-01 -4.315165872827591009e-01
3.629216501079919333e-01 -3.494403124316514120e-01
3.637088988067077588e-01 -2.639253337540967692e-01
3.644961475054235844e-01 -1.759005901984718179e-01
3.652833962041394100e-01 -8.629724305513497562e-02
3.660706449028552356e-01 3.970213950418521875e-03
3.668578936015710612e-01 9.400099153491425774e-02
3.676451423002868313e-01 1.829094864186200375e-01
3.684323909990026569e-01 2.698412081095480364e-01
3.692196396977184825e-01 3.539742604647768687e-01
3.700068883964343081e-01 4.345063780288900279e-01
3.707941370951501336e-01 5.106534444726558153e-01
3.715813857938659592e-01 5.816835685034138503e-01
3.723686344925817848e-01 6.469744943662705250e-01
3.731558831912975549e-01 7.060484185351469932e-01
3.739431318900133805e-01 7.585356914604102219e-01
3.747303805887292061e-01 8.040998135269881164e-01
3.755176292874450317e-01 8.424098409747635685e-01
3.763048779861608573e-01 8.731874254705207505e-01
3.770921266848766829e-01 8.962860776386283312e-01
3.778793753835925084e-01 9.117176499696557634e-01
3.786666240823082785e-01 9.195947411240124048e-01
3.794538727810241041e-01 9.200393947155300900e-01
3.802411214797399297e-01 9.131503197672319327e-01
3.810283701784557553e-01 8.990638199206661962e-01
3.818156188771715809e-01 8.780403721756115942e-01
3.826028675758874065e-01 8.504836499059487132e-01
3.833901162746032321e-01 8.168739278357408651e-01
3.841773649733190021e-01 7.776803805538410330e-01
3.849646136720348277e-01 7.333296514219562745e-01
3.857518623707506533e-01 6.842486558071925185e-01
3.865391110694664789e-01 6.309250183667305389e-01
3.873263597681823045e-01 5.739223169248564016e-01
3.881136084668981301e-01 5.138495426327605031e-01
3.889008571656139557e-01 4.513217286338948586e-01
3.896881058643297258e-01 3.869352959576155548e-01
3.904753545630455513e-01 3.212604605174094186e-01
3.912626032617613769e-01 2.548492891005793570e-01
3.920498519604772025e-01 1.882532929089326679e-01
3.928371006591930281e-01 1.220299093895615972e-01
