0.000000000000000000e+00 -1.007407065825214332e-01
7.872486987158176753e-04 -5.421699576773486573e-02
1.574497397431635351e-03 -5.421699576773486573e-02
2.361746096147452918e-03 -5.421699576773486573e-02
3.148994794863270701e-03 -5.421699576773486573e-02
3.936243493579088051e-03 -5.421699576773486573e-02
4.723492192294905835e-03 -5.421699576773486573e-02
5.510740891010723619e-03 -5.421699576773486573e-02
6.297989589726541403e-03 -5.421699576773486573e-02
7.085238288442359186e-03 -5.421699576773486573e-02
7.872486987158176103e-03 -5.421699576773486573e-02
8.659735685873994754e-03 -5.421699576773486573e-02
9.446984384589811670e-03 -5.421699576773486573e-02
1.023423308330563032e-02 -5.421699576773486573e-02
1.102148178202144724e-02 -5.421699576773486573e-02
1.180873048073726589e-02 -5.421699576773486573e-02
1.259597917945308281e-02 -5.421699576773486573e-02
1.338322787816889972e-02 -5.421699576773486573e-02
1.417047657688471837e-02 -5.421699576773486573e-02
1.495772527560053529e-02 -5.421699576773486573e-02
1.574497397431635221e-02 -5.421699576773486573e-02
1.653222267303217086e-02 -5.421699576773486573e-02
1.731947137174798951e-02 -5.421699576773486573e-02
1.810672007046380816e-02 -5.421699576773486573e-02
1.889396876917962334e-02 -5.421699576773486573e-02
1.968121746789544199e-02 -5.421699576773486573e-02
2.046846616661126064e-02 -5.421699576773486573e-02
2.125571486532707582e-02 -5.421699576773486573e-02
2.204296356404289448e-02 -5.421699576773486573e-02
2.283021226275871313e-02 -5.421699576773486573e-02
2.361746096147453178e-02 -5.421699576773486573e-02
2.440470966019034696e-02 -5.421699576773486573e-02
2.519195835890616561e-02 -5.421699576773486573e-02
2.597920705762198426e-02 -5.421699576773486573e-02
2.676645575633779944e-02 -5.421699576773486573e-02
2.755370445505361809e-02 -5.421699576773486573e-02
2.834095315376943675e-02 -5.421699576773486573e-02
2.912820185248525540e-02 -5.421699576773486573e-02
2.991545055120107058e-02 -5.421699576773486573e-02
3.070269924991688923e-02 -5.421699576773486573e-02
3.148994794863270441e-02 -5.421699576773486573e-02
3.227719664734852306e-02 -5.421699576773486573e-02
3.306444534606434171e-02 -5.421699576773486573e-02
3.385169404478016036e-02 -5.421699576773486573e-02
3.463894274349597902e-02 -5.421699576773486573e-02
3.542619144221179767e-02 -5.421699576773486573e-02
3.621344014092761632e-02 -5.421699576773486573e-02
3.700068883964342803e-02 -5.421699576773486573e-02
3.778793753835924668e-02 -5.421699576773486573e-02
3.857518623707506533e-02 -5.421699576773486573e-02
3.936243493579088398e-02 -5.421699576773486573e-02
4.014968363450670263e-02 -5.421699576773486573e-02
4.093693233322252129e-02 -5.421699576773486573e-02
4.172418103193833994e-02 -5.421699576773486573e-02
4.251142973065415165e-02 -5.421699576773486573e-02
4.329867842936997030e-02 -5.421699576773486573e-02
4.408592712808578895e-02 -5.421699576773486573e-02
4.487317582680160760e-02 -5.421699576773486573e-02
4.566042452551742625e-02 -5.421699576773486573e-02
4.644767322423324490e-02 -5.421699576773486573e-02
4.723492192294906356e-02 -5.421699576773486573e-02
4.802217062166487527e-02 -5.421699576773486573e-02
4.880941932038069392e-02 -5.421699576773486573e-02
4.959666801909651257e-02 -5.421699576773486573e-02
5.038391671781233122e-02 -5.421699576773486573e-02
5.117116541652814987e-02 -5.421699576773486573e-02
5.195841411524396852e-02 -5.421699576773486573e-02
5.274566281395978717e-02 -5.421699576773486573e-02
5.353291151267559889e-02 -5.421699576773486573e-02
5.432016021139141754e-02 -5.421699576773486573e-02
5.510740891010723619e-02 -5.421699576773486573e-02
5.589465760882305484e-02 -5.421699576773486573e-02
5.668190630753887349e-02 -5.421699576773486573e-02
5.746915500625469214e-02 -5.421699576773486573e-02
5.825640370497051079e-02 -5.421699576773486573e-02
5.904365240368632251e-02 -5.421699576773486573e-02
5.983090110240214116e-02 -5.421699576773486573e-02
6.061814980111795981e-02 -5.421699576773486573e-02
6.140539849983377846e-02 -5.421699576773486573e-02
6.219264719854959711e-02 -5.421699576773486573e-02
6.297989589726540882e-02 -5.421699576773486573e-02
6.376714459598123441e-02 -5.421699576773486573e-02
6.455439329469704612e-02 -5.421699576773486573e-02
6.534164199341287171e-02 -5.421699576773486573e-02
6.612889069212868343e-02 -5.421699576773486573e-02
6.691613939084450902e-02 -5.421699576773486573e-02
6.770338808956032073e-02 -5.421699576773486573e-02
6.849063678827613244e-02 -5.421699576773486573e-02
6.927788548699195803e-02 -5.421699576773486573e-02
7.006513418570776974e-02 -5.421699576773486573e-02
7.085238288442359533e-02 -5.421699576773486573e-02
7.163963158313940705e-02 -5.421699576773486573e-02
7.242688028185523264e-02 -5.421699576773486573e-02
7.321412898057104435e-02 -5.421699576773486573e-02
7.400137767928685606e-02 -5.421699576773486573e-02
7.478862637800268165e-02 -5.421699576773486573e-02
7.557587507671849336e-02 -5.421699576773486573e-02
7.636312377543431895e-02 -5.421699576773486573e-02
7.715037247415013066e-02 -5.421699576773486573e-02
7.793762117286595625e-02 -5.421699576773486573e-02
7.872486987158176797e-02 -5.421699576773486573e-02
7.951211857029757968e-02 -5.421699576773486573e-02
8.029936726901340527e-02 -5.421699576773486573e-02
8.108661596772921698e-02 -5.421699576773486573e-02
8.187386466644504257e-02 -5.421699576773486573e-02
8.266111336516085428e-02 -5.421699576773486573e-02
8.344836206387667987e-02 -5.421699576773486573e-02
8.423561076259249158e-02 -5.421699576773486573e-02
8.502285946130830330e-02 -5.421699576773486573e-02
8.581010816002412889e-02 -5.421699576773486573e-02
8.659735685873994060e-02 -5.421699576773486573e-02
8.738460555745576619e-02 -5.421699576773486573e-02
8.817185425617157790e-02 -5.421699576773486573e-02
8.895910295488740349e-02 -5.421699576773486573e-02
8.974635165360321520e-02 -5.421699576773486573e-02
9.053360035231902692e-02 -5.421699576773486573e-02
9.132084905103485251e-02 -5.421699576773486573e-02
9.210809774975066422e-02 -5.421699576773486573e-02
9.289534644846648981e-02 -5.421699576773486573e-02
9.368259514718230152e-02 -5.421699576773486573e-02
9.446984384589812711e-02 -5.421699576773486573e-02
9.525709254461393882e-02 -5.421699576773486573e-02
9.604434124332975053e-02 -5.421699576773486573e-02
9.683158994204557612e-02 -5.421699576773486573e-02
9.761883864076138784e-02 -5.421699576773486573e-02
9.840608733947721343e-02 -5.421699576773486573e-02
9.919333603819302514e-02 -5.421699576773486573e-02
9.998058473690885073e-02 -5.421699576773486573e-02
1.007678334356246624e-01 -5.421699576773486573e-02
1.015550821343404742e-01 -5.421699576773486573e-02
1.023423308330562997e-01 -5.421699576773486573e-02
1.031295795317721115e-01 -5.421699576773486573e-02
1.039168282304879370e-01 -5.421699576773486573e-02
1.047040769292037488e-01 -5.421699576773486573e-02
1.054913256279195743e-01 -5.421699576773486573e-02
1.062785743266353861e-01 -5.421699576773486573e-02
1.070658230253511978e-01 -5.421699576773486573e-02
1.078530717240670234e-01 -5.421699576773486573e-02
1.086403204227828351e-01 -5.421699576773486573e-02
1.094275691214986607e-01 -5.421699576773486573e-02
1.102148178202144724e-01 -5.421699576773486573e-02
1.110020665189302980e-01 -5.421699576773486573e-02
1.117893152176461097e-01 -5.421699576773486573e-02
1.125765639163619214e-01 -5.421699576773486573e-02
1.133638126150777470e-01 -5.421699576773486573e-02
1.141510613137935587e-01 -5.421699576773486573e-02
1.149383100125093843e-01 -5.421699576773486573e-02
1.157255587112251960e-01 -5.421699576773486573e-02
1.165128074099410216e-01 -5.421699576773486573e-02
1.173000561086568333e-01 -5.421699576773486573e-02
1.180873048073726450e-01 -5.421699576773486573e-02
1.188745535060884706e-01 -5.421699576773486573e-02
1.196618022048042823e-01 -5.421699576773486573e-02
1.204490509035201079e-01 -5.421699576773486573e-02
1.212362996022359196e-01 -5.421699576773486573e-02
1.220235483009517452e-01 -5.421699576773486573e-02
1.228107969996675569e-01 -5.421699576773486573e-02
1.235980456983833686e-01 -5.421699576773486573e-02
1.243852943970991942e-01 -5.421699576773486573e-02
1.251725430958150198e-01 -5.421699576773486573e-02
1.259597917945308176e-01 -5.421699576773486573e-02
1.267470404932466432e-01 -5.421699576773486573e-02
1.275342891919624688e-01 -5.421699576773486573e-02
1.283215378906782944e-01 -5.421699576773486573e-02
1.291087865893940922e-01 -5.421699576773486573e-02
1.298960352881099178e-01 -5.421699576773486573e-02
1.306832839868257434e-01 -5.421699576773486573e-02
1.314705326855415413e-01 -5.421699576773486573e-02
1.322577813842573669e-01 -5.421699576773486573e-02
1.330450300829731924e-01 -5.421699576773486573e-02
1.338322787816890180e-01 -5.421699576773486573e-02
1.346195274804048159e-01 -5.421699576773486573e-02
1.354067761791206415e-01 -5.421699576773486573e-02
1.361940248778364670e-01 -5.421699576773486573e-02
1.369812735765522649e-01 -5.421699576773486573e-02
1.377685222752680905e-01 -5.421699576773486573e-02
1.385557709739839161e-01 -5.421699576773486573e-02
1.393430196726997417e-01 -5.421699576773486573e-02
1.401302683714155395e-01 -5.421699576773486573e-02
1.409175170701313651e-01 -5.421699576773486573e-02
1.417047657688471907e-01 -5.421699576773486573e-02
1.424920144675629885e-01 -5.421699576773486573e-02
1.432792631662788141e-01 -5.421699576773486573e-02
1.440665118649946397e-01 -5.421699576773486573e-02
1.448537605637104653e-01 -5.421699576773486573e-02
1.456410092624262631e-01 -5.421699576773486573e-02
1.464282579611420887e-01 -5.421699576773486573e-02
1.472155066598579143e-01 -5.421699576773486573e-02
1.480027553585737121e-01 -5.421699576773486573e-02
1.487900040572895377e-01 -5.421699576773486573e-02
1.495772527560053633e-01 -5.421699576773486573e-02
1.503645014547211889e-01 -5.421699576773486573e-02
1.511517501534369867e-01 -5.421699576773486573e-02
1.519389988521528123e-01 -5.421699576773486573e-02
1.527262475508686379e-01 -5.421699576773486573e-02
1.535134962495844357e-01 -5.421699576773486573e-02
1.543007449483002613e-01 -5.421699576773486573e-02
1.550879936470160869e-01 -5.421699576773486573e-02
1.558752423457319125e-01 -5.421699576773486573e-02
1.566624910444477103e-01 -5.421699576773486573e-02
1.574497397431635359e-01 -5.421699576773486573e-02
1.582369884418793615e-01 -5.421699576773486573e-02
1.590242371405951594e-01 -5.421699576773486573e-02
1.598114858393109849e-01 -5.421699576773486573e-02
1.605987345380268105e-01 -5.421699576773486573e-02
1.613859832367426361e-01 -5.421699576773486573e-02
1.621732319354584340e-01 -5.421699576773486573e-02
1.629604806341742596e-01 -5.421699576773486573e-02
1.637477293328900851e-01 -5.421699576773486573e-02
1.645349780316058830e-01 -5.421699576773486573e-02
1.653222267303217086e-01 -5.421699576773486573e-02
1.661094754290375342e-01 -5.421699576773486573e-02
1.668967241277533597e-01 -5.421699576773486573e-02
1.676839728264691576e-01 -5.421699576773486573e-02
1.684712215251849832e-01 -5.421699576773486573e-02
1.692584702239008088e-01 -5.421699576773486573e-02
1.700457189226166066e-01 -5.421699576773486573e-02
1.708329676213324322e-01 -5.421699576773486573e-02
1.716202163200482578e-01 -5.421699576773486573e-02
1.724074650187640834e-01 -5.421699576773486573e-02
1.731947137174798812e-01 -5.421699576773486573e-02
1.739819624161957068e-01 -5.421699576773486573e-02
1.747692111149115324e-01 -5.421699576773486573e-02
1.755564598136273302e-01 -5.421699576773486573e-02
1.763437085123431558e-01 -5.421699576773486573e-02
1.771309572110589814e-01 -5.421699576773486573e-02
1.779182059097748070e-01 -5.421699576773486573e-02
1.787054546084906048e-01 -5.421699576773486573e-02
1.794927033072064304e-01 -5.421699576773486573e-02
1.802799520059222560e-01 -5.421699576773486573e-02
1.810672007046380538e-01 -5.421699576773486573e-02
1.818544494033538794e-01 -5.421699576773486573e-02
1.826416981020697050e-01 -5.421699576773486573e-02
1.834289468007855306e-01 -5.421699576773486573e-02
1.842161954995013284e-01 -5.421699576773486573e-02
1.850034441982171540e-01 -5.421699576773486573e-02
1.857906928969329796e-01 -5.421699576773486573e-02
1.865779415956487775e-01 -5.421699576773486573e-02
1.873651902943646030e-01 -5.421699576773486573e-02
1.881524389930804286e-01 -5.421699576773486573e-02
1.889396876917962542e-01 -5.421699576773486573e-02
1.897269363905120521e-01 -5.421699576773486573e-02
1.905141850892278776e-01 -5.421699576773486573e-02
1.913014337879437032e-01 -5.421699576773486573e-02
1.920886824866595011e-01 -5.421699576773486573e-02
1.928759311853753267e-01 -5.421699576773486573e-02
1.936631798840911522e-01 -5.421699576773486573e-02
1.944504285828069778e-01 -5.421699576773486573e-02
1.952376772815227757e-01 -5.421699576773486573e-02
1.960249259802386013e-01 -5.421699576773486573e-02
1.968121746789544269e-01 -5.421699576773486573e-02
1.975994233776702247e-01 -5.421699576773486573e-02
1.983866720763860503e-01 -5.421699576773486573e-02
1.991739207751018759e-01 -5.421699576773486573e-02
1.999611694738177015e-01 -5.421699576773486573e-02
2.007484181725334993e-01 -5.421699576773486573e-02
2.015356668712493249e-01 -5.421699576773486573e-02
2.023229155699651505e-01 -5.421699576773486573e-02
2.031101642686809483e-01 -5.421699576773486573e-02
2.038974129673967739e-01 -5.421699576773486573e-02
2.046846616661125995e-01 -5.421699576773486573e-02
2.054719103648284251e-01 -5.421699576773486573e-02
2.062591590635442229e-01 -5.421699576773486573e-02
2.070464077622600485e-01 -5.421699576773486573e-02
2.078336564609758741e-01 -5.421699576773486573e-02
2.086209051596916719e-01 -5.421699576773486573e-02
2.094081538584074975e-01 -5.421699576773486573e-02
2.101954025571233231e-01 -5.421699576773486573e-02
2.109826512558391487e-01 -5.421699576773486573e-02
2.117698999545549465e-01 -5.421699576773486573e-02
2.125571486532707721e-01 -5.421699576773486573e-02
2.133443973519865977e-01 -5.421699576773486573e-02
2.141316460507023955e-01 -5.421699576773486573e-02
2.149188947494182211e-01 -5.421699576773486573e-02
2.157061434481340467e-01 -5.421699576773486573e-02
2.164933921468498723e-01 -5.421699576773486573e-02
2.172806408455656701e-01 -5.421699576773486573e-02
2.180678895442814957e-01 -5.421699576773486573e-02
2.188551382429973213e-01 -5.421699576773486573e-02
2.196423869417131192e-01 -5.421699576773486573e-02
2.204296356404289448e-01 -5.421699576773486573e-02
2.212168843391447703e-01 -5.421699576773486573e-02
2.220041330378605959e-01 -5.421699576773486573e-02
2.227913817365763938e-01 -5.421699576773486573e-02
2.235786304352922194e-01 -5.421699576773486573e-02
2.243658791340080449e-01 -5.421699576773486573e-02
2.251531278327238428e-01 -5.421699576773486573e-02
2.259403765314396684e-01 -5.421699576773486573e-02
2.267276252301554940e-01 -5.421699576773486573e-02
2.275148739288713196e-01 -5.421699576773486573e-02
2.283021226275871174e-01 -5.421699576773486573e-02
2.290893713263029430e-01 -5.421699576773486573e-02
2.298766200250187686e-01 -5.421699576773486573e-02
2.306638687237345664e-01 -5.421699576773486573e-02
2.314511174224503920e-01 -5.421699576773486573e-02
2.322383661211662176e-01 -5.421699576773486573e-02
2.330256148198820432e-01 -5.421699576773486573e-02
2.338128635185978410e-01 -5.421699576773486573e-02
2.346001122173136666e-01 -5.421699576773486573e-02
2.353873609160294922e-01 -5.421699576773486573e-02
2.361746096147452900e-01 -5.421699576773486573e-02
2.369618583134611156e-01 -5.421699576773486573e-02
2.377491070121769412e-01 -5.421699576773486573e-02
2.385363557108927668e-01 -5.421699576773486573e-02
2.393236044096085646e-01 -5.421699576773486573e-02
2.401108531083243902e-01 -5.421699576773486573e-02
2.408981018070402158e-01 -5.421699576773486573e-02
2.416853505057560136e-01 -5.421699576773486573e-02
2.424725992044718392e-01 -5.421699576773486573e-02
2.432598479031876648e-01 -5.421699576773486573e-02
2.440470966019034904e-01 -5.421699576773486573e-02
2.448343453006192882e-01 -5.421699576773419960e-02
2.456215939993351138e-01 -5.421699576773397755e-02
2.464088426980509394e-01 -5.421699576772709417e-02
2.471960913967667373e-01 -5.421699576772520679e-02
2.479833400954825628e-01 -5.421699576765126594e-02
2.487705887941983884e-01 -5.421699576762972761e-02
2.495578374929142140e-01 -5.421699576693528311e-02
2.503450861916300396e-01 -5.421699576672767140e-02
2.511323348903458652e-01 -5.421699576094340944e-02
2.519195835890616353e-01 -5.421699575917038327e-02
2.527068322877774609e-01 -5.421699571631866110e-02
2.534940809864932865e-01 -5.421699570281923730e-02
2.542813296852091121e-01 -5.421699541972224701e-02
2.550685783839249376e-01 -5.421699532787360720e-02
2.558558270826407632e-01 -5.421699365709398144e-02
2.566430757813565888e-01 -5.421699309739325123e-02
2.574303244800723589e-01 -5.421698427976029411e-02
2.582175731787881845e-01 -5.421698122061502367e-02
2.590048218775040101e-01 -5.421693959843854049e-02
2.597920705762198357e-01 -5.421692458910154500e-02
2.605793192749356613e-01 -5.421674897153094808e-02
2.613665679736514869e-01 -5.421668285352732042e-02
2.621538166723673124e-01 -5.421602153391802403e-02
2.629410653710830825e-01 -5.421576015300155760e-02
2.637283140697989081e-01 -5.421354341537254484e-02
2.645155627685147337e-01 -5.421261715100067491e-02
2.653028114672305593e-01 -5.420602909584026907e-02
2.660900601659463849e-01 -5.420309205936235664e-02
2.668773088646622105e-01 -5.418583081896488629e-02
2.676645575633780361e-01 -5.417751920747704286e-02
2.684518062620938061e-01 -5.413796664446390849e-02
2.692390549608096317e-01 -5.411704308638365379e-02
2.700263036595254573e-01 -5.403867451495347751e-02
2.708135523582412829e-01 -5.399200110020718757e-02
2.716008010569571085e-01 -5.385988870308433540e-02
2.723880497556729341e-01 -5.376801048119850268e-02
2.731752984543887597e-01 -5.358287811783002397e-02
2.739625471531045298e-01 -5.342377064866765668e-02
2.747497958518203554e-01 -5.321483962145001634e-02
2.755370445505361809e-01 -5.297233848909732590e-02
2.763242932492520065e-01 -5.278720933589897690e-02
2.771115419479678321e-01 -5.245867166609119447e-02
2.778987906466836577e-01 -5.231405359355933982e-02
2.786860393453994833e-01 -5.190689189512343038e-02
2.794732880441152534e-01 -5.172751373905060124e-02
2.802605367428310790e-01 -5.124113082992065582e-02
2.810477854415469046e-01 -5.086475131692280716e-02
2.818350341402627302e-01 -5.027438819503982081e-02
2.826222828389785557e-01 -4.956830196775419139e-02
2.834095315376943813e-01 -4.883519750207832022e-02
2.841967802364102069e-01 -4.782398994209691168e-02
2.849840289351259770e-01 -4.692296120726135999e-02
2.857712776338418026e-01 -4.574277897429290807e-02
2.865585263325576282e-01 -4.465578173981232801e-02
2.873457750312734538e-01 -4.334383025316734805e-02
2.881330237299892794e-01 -4.200567799116583512e-02
2.889202724287051050e-01 -4.042281780833001381e-02
2.897075211274209305e-01 -3.871334200602294384e-02
2.904947698261367006e-01 -3.675898900292584592e-02
2.912820185248525262e-01 -3.461944951570539164e-02
2.920692672235683518e-01 -3.238921648370307604e-02
2.928565159222841774e-01 -2.992433249643633442e-02
2.936437646210000030e-01 -2.749441567128896313e-02
2.944310133197158286e-01 -2.485541929203960443e-02
2.952182620184316542e-01 -2.211064753674685246e-02
2.960055107171474242e-01 -1.930790390741421447e-02
2.967927594158632498e-01 -1.625661679175671726e-02
2.975800081145790754e-01 -1.326350410735099850e-02
2.983672568132949010e-01 -1.025080703423086881e-02
2.991545055120107266e-01 -7.262706193981949276e-03
2.999417542107265522e-01 -4.530927036993981361e-03
3.007290029094423778e-01 -1.871327695622149179e-03
3.015162516081581479e-01 6.433911531158464925e-04
3.023035003068739734e-01 2.801956549880690872e-03
3.030907490055897990e-01 4.866535400333660277e-03
3.038779977043056246e-01 6.353189588550023359e-03
3.046652464030214502e-01 7.334723963828393423e-03
3.054524951017372758e-01 7.723425466076072610e-03
3.062397438004531014e-01 7.349632174622700020e-03
3.070269924991688715e-01 6.243924441113435364e-03
3.078142411978846971e-01 4.486514921452355864e-03
3.086014898966005227e-01 1.730648818297320091e-03
3.093887385953163482e-01 -1.939294321230966567e-03
3.101759872940321738e-01 -6.634663090177683742e-03
3.109632359927479994e-01 -1.268443355003023854e-02
3.117504846914638250e-01 -1.971976638000305648e-02
3.125377333901795951e-01 -2.795071919616409772e-02
3.133249820888954207e-01 -3.733182658546974064e-02
3.141122307876112463e-01 -4.774410065431300421e-02
3.148994794863270719e-01 -5.930365877124121887e-02
3.156867281850428975e-01 -7.211407133236258371e-02
3.164739768837587230e-01 -8.582893078126985209e-02
3.172612255824745486e-01 -1.004982398125529031e-01
3.180484742811903187e-01 -1.159514336791112044e-01
3.188357229799061443e-01 -1.318377527381567882e-01
3.196229716786219699e-01 -1.482125008958815604e-01
3.204102203773377955e-01 -1.650208603834021348e-01
3.211974690760536211e-01 -1.816780543173714957e-01
3.219847177747694467e-01 -1.983391257751112580e-01
3.227719664734852723e-01 -2.144237714939823958e-01
3.235592151722010423e-01 -2.296146335154357621e-01
3.243464638709168679e-01 -2.438701268438725478e-01
3.251337125696326935e-01 -2.569102103465205067e-01
3.259209612683485191e-01 -2.683552686589222303e-01
3.267082099670643447e-01 -2.780978683295710630e-01
3.274954586657801703e-01 -2.857919287872735525e-01
3.282827073644959959e-01 -2.909576238275062288e-01
3.290699560632117660e-01 -2.937687938368530594e-01
3.298572047619275915e-01 -2.939529241298003415e-01
3.306444534606434171e-01 -2.912567140192184878e-01
3.314317021593592427e-01 -2.858133651276393294e-01
3.322189508580750683e-01 -2.773204537503780598e-01
3.330061995567908939e-01 -2.657275605037234811e-01
3.337934482555067195e-01 -2.512714111075244894e-01
3.345806969542224896e-01 -2.340682618267021509e-01
3.353679456529383152e-01 -2.141393175076656830e-01
3.361551943516541407e-01 -1.917451477477767341e-01
3.369424430503699663e-01 -1.671499334501174161e-01
3.377296917490857919e-01 -1.403681198375690276e-01
3.385169404478016175e-01 -1.120908552664596769e-01
3.393041891465174431e-01 -8.263602723776408698e-02
3.400914378452332132e-01 -5.222485137625010321e-02
3.408786865439490388e-01 -2.137170725311310360e-02
3.416659352426648644e-01 9.541532701114130433e-03
3.424531839413806900e-01 4.014077425283479883e-02
3.432404326400965155e-01 6.984783809646044617e-02
3.440276813388123411e-01 9.811343537216532518e-02
3.448149300375281667e-01 1.247513523413947834e-01
3.456021787362439368e-01 1.493993935599122747e-01
3.463894274349597624e-01 1.715397070471760266e-01
3.471766761336755880e-01 1.910022373427902043e-01
3.479639248323914136e-01 2.073866850972894138e-01
3.487511735311072392e-01 2.203927332009929518e-01
3.495384222298230648e-01 2.300225808464864130e-01
3.503256709285388903e-01 2.362548148427998651e-01
3.511129196272546604e-01 2.388065727245671788e-01
3.519001683259704860e-01 2.377281118297300821e-01
3.526874170246863116e-01 2.331416696483088469e-01
3.534746657234021372e-01 2.250770539208686305e-01
3.542619144221179628e-01 2.138139759012940289e-01
3.550491631208337884e-01 1.996589769930194880e-01
3.558364118195496140e-01 1.826856317627487680e-01
3.566236605182653840e-01 1.631284204389533699e-01
3.574109092169812096e-01 1.415139686231239313e-01
3.581981579156970352e-01 1.181789148267065048e-01
3.589854066144128608e-01 9.344892474761135048e-02
3.597726553131286864e-01 6.777453192385007874e-02
3.605599040118445120e-01 4.146880878210290611e-02
3.613471527105603376e-01 1.481616879724434455e-02
3.621344014092761077e-01 -1.164886848532020736e-02
3.629216501079919333e-01 -3.749053884200059805e-02
3.637088988067077588e-01 -6.258716904929506608e-02
3.644961475054235844e-01 -8.662309394821088304e-02
3.652833962041394100e-01 -1.092746849876539139e-01
3.660706449028552356e-01 -1.303312826672696767e-01
3.668578936015710612e-01 -1.495831997613205067e-01
3.676451423002868313e-01 -1.667086133715723895e-01
3.684323909990026569e-01 -1.817057641439566718e-01
3.692196396977184825e-01 -1.944767764336929883e-01
3.700068883964343081e-01 -2.048447888580662291e-01
3.707941370951501336e-01 -2.127708641336042428e-01
3.715813857938659592e-01 -2.185590232732912419e-01
3.723686344925817848e-01 -2.223182073330247643e-01
3.731558831912975549e-01 -2.241824976123713009e-01
3.739431318900133805e-01 -2.242861027325732115e-01
3.747303805887292061e-01 -2.226070076183734869e-01
3.755176292874450317e-01 -2.191399544632868235e-01
3.763048779861608573e-01 -2.141818660968581867e-01
3.770921266848766829e-01 -2.080774138708215704e-01
3.778793753835925084e-01 -2.009796905259153554e-01
3.786666240823082785e-01 -1.931516413662291987e-01
3.794538727810241041e-01 -1.848375880070574073e-01
3.802411214797399297e-01 -1.761283802516024899e-01
3.810283701784557553e-01 -1.671159501373129519e-01
3.818156188771715809e-01 -1.580799307888628435e-01
3.826028675758874065e-01 -1.492081332531067783e-01
3.833901162746032321e-01 -1.406787847271029346e-01
3.841773649733190021e-01 -1.327394679972568881e-01
3.849646136720348277e-01 -1.254988463267187049e-01
3.857518623707506533e-01 -1.188687205180871675e-01
3.865391110694664789e-01 -1.129505775218627717e-01
3.873263597681823045e-01 -1.079175748174577842e-01
3.881136084668981301e-01 -1.038954136232156378e-01
3.889008571656139557e-01 -1.007986726692123858e-01
3.896881058643297258e-01 -9.871777349483090713e-02
3.904753545630455513e-01 -9.749034623902885777e-02
3.912626032617613769e-01 -9.713287327150410544e-02
3.920498519604772025e-01 -9.759012013425172327e-02
3.928371006591930281e-01 -9.888898642500920655e-02
