0.000000000000000000e+00 3.212177245134917314e-02
7.866575232224141392e-04 2.875133730023149425e-02
1.573315046444828278e-03 2.875133730023149425e-02
2.359972569667242309e-03 2.875133730023149425e-02
3.146630092889656557e-03 2.875133730023149425e-02
3.933287616112070804e-03 2.875133730023149425e-02
4.719945139334484618e-03 2.875133730023149425e-02
5.506602662556899300e-03 2.875133730023149425e-02
6.293260185779313114e-03 2.875133730023149425e-02
7.079917709001726928e-03 2.875133730023149425e-02
7.866575232224141609e-03 2.875133730023149425e-02
8.653232755446556290e-03 2.875133730023149425e-02
9.439890278668969237e-03 2.875133730023149425e-02
1.022654780189138392e-02 2.875133730023149425e-02
1.101320532511379860e-02 2.875133730023149425e-02
1.179986284833621155e-02 2.875133730023149425e-02
1.258652037155862623e-02 2.875133730023149425e-02
1.337317789478104091e-02 2.875133730023149425e-02
1.415983541800345386e-02 2.875133730023149425e-02
1.494649294122586854e-02 2.875133730023149425e-02
1.573315046444828322e-02 2.875133730023149425e-02
1.651980798767069616e-02 2.875133730023149425e-02
1.730646551089311258e-02 2.875133730023149425e-02
1.809312303411552553e-02 2.875133730023149425e-02
1.887978055733793847e-02 2.875133730023149425e-02
1.966643808056035489e-02 2.875133730023149425e-02
2.045309560378276784e-02 2.875133730023149425e-02
2.123975312700518078e-02 2.875133730023149425e-02
2.202641065022759720e-02 2.875133730023149425e-02
2.281306817345001015e-02 2.875133730023149425e-02
2.359972569667242309e-02 2.875133730023149425e-02
2.438638321989483951e-02 2.875133730023149425e-02
2.517304074311725245e-02 2.875133730023149425e-02
2.595969826633966540e-02 2.875133730023149425e-02
2.674635578956208182e-02 2.875133730023149425e-02
2.753301331278449476e-02 2.875133730023149425e-02
2.831967083600690771e-02 2.875133730023149425e-02
2.910632835922932413e-02 2.875133730023149425e-02
2.989298588245173707e-02 2.875133730023149425e-02
3.067964340567415002e-02 2.875133730023149425e-02
3.146630092889656644e-02 2.875133730023149425e-02
3.225295845211897938e-02 2.875133730023149425e-02
3.303961597534139233e-02 2.875133730023149425e-02
3.382627349856380528e-02 2.875133730023149425e-02
3.461293102178622516e-02 2.875133730023149425e-02
3.539958854500863811e-02 2.875133730023149425e-02
3.618624606823105105e-02 2.875133730023149425e-02
3.697290359145346400e-02 2.875133730023149425e-02
3.775956111467587695e-02 2.875133730023149425e-02
3.854621863789828989e-02 2.875133730023149425e-02
3.933287616112070978e-02 2.875133730023149425e-02
4.011953368434312273e-02 2.875133730023149425e-02
4.090619120756553567e-02 2.875133730023149425e-02
4.169284873078794862e-02 2.875133730023149425e-02
4.247950625401036157e-02 2.875133730023149425e-02
4.326616377723277451e-02 2.875133730023149425e-02
4.405282130045519440e-02 2.875133730023149425e-02
4.483947882367760734e-02 2.875133730023149425e-02
4.562613634690002029e-02 2.875133730023149425e-02
4.641279387012243324e-02 2.875133730023149425e-02
4.719945139334484618e-02 2.875133730023149425e-02
4.798610891656725913e-02 2.875133730023149425e-02
4.877276643978967902e-02 2.875133730023149425e-02
4.955942396301209196e-02 2.875133730023149425e-02
5.034608148623450491e-02 2.875133730023149425e-02
5.113273900945691786e-02 2.875133730023149425e-02
5.191939653267933080e-02 2.875133730023149425e-02
5.270605405590175069e-02 2.875133730023149425e-02
5.349271157912416363e-02 2.875133730023149425e-02
5.427936910234657658e-02 2.875133730023149425e-02
5.506602662556898953e-02 2.875133730023149425e-02
5.585268414879140247e-02 2.875133730023149425e-02
5.663934167201381542e-02 2.875133730023149425e-02
5.742599919523623531e-02 2.875133730023149425e-02
5.821265671845864825e-02 2.875133730023149425e-02
5.899931424168106120e-02 2.875133730023149425e-02
5.978597176490347415e-02 2.875133730023149425e-02
6.057262928812588709e-02 2.875133730023149425e-02
6.135928681134830004e-02 2.875133730023149425e-02
6.214594433457071992e-02 2.875133730023149425e-02
6.293260185779313287e-02 2.875133730023149425e-02
6.371925938101553888e-02 2.875133730023149425e-02
6.450591690423795876e-02 2.875133730023149425e-02
6.529257442746037865e-02 2.875133730023149425e-02
6.607923195068278466e-02 2.875133730023149425e-02
6.686588947390520454e-02 2.875133730023149425e-02
6.765254699712761055e-02 2.875133730023149425e-02
6.843920452035003044e-02 2.875133730023149425e-02
6.922586204357245032e-02 2.875133730023149425e-02
7.001251956679485633e-02 2.875133730023149425e-02
7.079917709001727621e-02 2.875133730023149425e-02
7.158583461323968222e-02 2.875133730023149425e-02
7.237249213646210211e-02 2.875133730023149425e-02
7.315914965968450812e-02 2.875133730023149425e-02
7.394580718290692800e-02 2.875133730023149425e-02
7.473246470612934789e-02 2.875133730023149425e-02
7.551912222935175389e-02 2.875133730023149425e-02
7.630577975257417378e-02 2.875133730023149425e-02
7.709243727579657979e-02 2.875133730023149425e-02
7.787909479901899967e-02 2.875133730023149425e-02
7.866575232224141956e-02 2.875133730023149425e-02
7.945240984546382557e-02 2.875133730023149425e-02
8.023906736868624545e-02 2.875133730023149425e-02
8.102572489190865146e-02 2.875133730023149425e-02
8.181238241513107134e-02 2.875133730023149425e-02
8.259903993835349123e-02 2.875133730023149425e-02
8.338569746157589724e-02 2.875133730023149425e-02
8.417235498479831712e-02 2.875133730023149425e-02
8.495901250802072313e-02 2.875133730023149425e-02
8.574567003124314302e-02 2.875133730023149425e-02
8.653232755446554902e-02 2.875133730023149425e-02
8.731898507768796891e-02 2.875133730023149425e-02
8.810564260091038880e-02 2.875133730023149425e-02
8.889230012413279480e-02 2.875133730023149425e-02
8.967895764735521469e-02 2.875133730023149425e-02
9.046561517057762070e-02 2.875133730023149425e-02
9.125227269380004058e-02 2.875133730023149425e-02
9.203893021702246047e-02 2.875133730023149425e-02
9.282558774024486647e-02 2.875133730023149425e-02
9.361224526346728636e-02 2.875133730023149425e-02
9.439890278668969237e-02 2.875133730023149425e-02
9.518556030991211225e-02 2.875133730023149425e-02
9.597221783313451826e-02 2.875133730023149425e-02
9.675887535635693815e-02 2.875133730023149425e-02
9.754553287957935803e-02 2.875133730023149425e-02
9.833219040280176404e-02 2.875133730023149425e-02
9.911884792602418393e-02 2.875133730023149425e-02
9.990550544924658993e-02 2.875133730023149425e-02
1.006921629724690098e-01 2.875133730023149425e-02
1.014788204956914297e-01 2.875133730023149425e-02
1.022654780189138357e-01 2.875133730023149425e-02
1.030521355421362556e-01 2.875133730023149425e-02
1.038387930653586616e-01 2.875133730023149425e-02
1.046254505885810815e-01 2.875133730023149425e-02
1.054121081118035014e-01 2.875133730023149425e-02
1.061987656350259074e-01 2.875133730023149425e-02
1.069854231582483273e-01 2.875133730023149425e-02
1.077720806814707333e-01 2.875133730023149425e-02
1.085587382046931532e-01 2.875133730023149425e-02
1.093453957279155592e-01 2.875133730023149425e-02
1.101320532511379791e-01 2.875133730023149425e-02
1.109187107743603989e-01 2.875133730023149425e-02
1.117053682975828049e-01 2.875133730023149425e-02
1.124920258208052248e-01 2.875133730023149425e-02
1.132786833440276308e-01 2.875133730023149425e-02
1.140653408672500507e-01 2.875133730023149425e-02
1.148519983904724706e-01 2.875133730023149425e-02
1.156386559136948766e-01 2.875133730023149425e-02
1.164253134369172965e-01 2.875133730023149425e-02
1.172119709601397025e-01 2.875133730023149425e-02
1.179986284833621224e-01 2.875133730023149425e-02
1.187852860065845284e-01 2.875133730023149425e-02
1.195719435298069483e-01 2.875133730023149425e-02
1.203586010530293682e-01 2.875133730023149425e-02
1.211452585762517742e-01 2.875133730023149425e-02
1.219319160994741941e-01 2.875133730023149425e-02
1.227185736226966001e-01 2.875133730023149425e-02
1.235052311459190200e-01 2.875133730023149425e-02
1.242918886691414398e-01 2.875133730023149425e-02
1.250785461923638597e-01 2.875133730023149425e-02
1.258652037155862657e-01 2.875133730023149425e-02
1.266518612388086718e-01 2.875133730023149425e-02
1.274385187620310778e-01 2.875133730023149425e-02
1.282251762852535115e-01 2.875133730023149425e-02
1.290118338084759175e-01 2.875133730023149425e-02
1.297984913316983235e-01 2.875133730023149425e-02
1.305851488549207573e-01 2.875133730023149425e-02
1.313718063781431633e-01 2.875133730023149425e-02
1.321584639013655693e-01 2.875133730023149425e-02
1.329451214245880031e-01 2.875133730023149425e-02
1.337317789478104091e-01 2.875133730023149425e-02
1.345184364710328151e-01 2.875133730023149425e-02
1.353050939942552211e-01 2.875133730023149425e-02
1.360917515174776549e-01 2.875133730023149425e-02
1.368784090407000609e-01 2.875133730023149425e-02
1.376650665639224669e-01 2.875133730023149425e-02
1.384517240871449006e-01 2.875133730023149425e-02
1.392383816103673067e-01 2.875133730023149425e-02
1.400250391335897127e-01 2.875133730023149425e-02
1.408116966568121187e-01 2.875133730023149425e-02
1.415983541800345524e-01 2.875133730023149425e-02
1.423850117032569584e-01 2.875133730023149425e-02
1.431716692264793644e-01 2.875133730023149425e-02
1.439583267497017982e-01 2.875133730023149425e-02
1.447449842729242042e-01 2.875133730023149425e-02
1.455316417961466102e-01 2.875133730023149425e-02
1.463182993193690162e-01 2.875133730023149425e-02
1.471049568425914500e-01 2.875133730023149425e-02
1.478916143658138560e-01 2.875133730023149425e-02
1.486782718890362620e-01 2.875133730023149425e-02
1.494649294122586958e-01 2.875133730023149425e-02
1.502515869354811018e-01 2.875133730023149425e-02
1.510382444587035078e-01 2.875133730023149425e-02
1.518249019819259416e-01 2.875133730023149425e-02
1.526115595051483476e-01 2.875133730023149425e-02
1.533982170283707536e-01 2.875133730023149425e-02
1.541848745515931596e-01 2.875133730023149425e-02
1.549715320748155933e-01 2.875133730023149425e-02
1.557581895980379993e-01 2.875133730023149425e-02
1.565448471212604054e-01 2.875133730023149425e-02
1.573315046444828391e-01 2.875133730023149425e-02
1.581181621677052451e-01 2.875133730023149425e-02
1.589048196909276511e-01 2.875133730023149425e-02
1.596914772141500571e-01 2.875133730023149425e-02
1.604781347373724909e-01 2.875133730023149425e-02
1.612647922605948969e-01 2.875133730023149425e-02
1.620514497838173029e-01 2.875133730023149425e-02
1.628381073070397367e-01 2.875133730023149425e-02
1.636247648302621427e-01 2.875133730023149425e-02
1.644114223534845487e-01 2.875133730023149425e-02
1.651980798767069825e-01 2.875133730023149425e-02
1.659847373999293885e-01 2.875133730023149425e-02
1.667713949231517945e-01 2.875133730023149425e-02
1.675580524463742005e-01 2.875133730023149425e-02
1.683447099695966342e-01 2.875133730023149425e-02
1.691313674928190403e-01 2.875133730023149425e-02
1.699180250160414463e-01 2.875133730023149425e-02
1.707046825392638800e-01 2.875133730023149425e-02
1.714913400624862860e-01 2.875133730023149425e-02
1.722779975857086920e-01 2.875133730023149425e-02
1.730646551089310980e-01 2.875133730023149425e-02
1.738513126321535318e-01 2.875133730023149425e-02
1.746379701553759378e-01 2.875133730023149425e-02
1.754246276785983438e-01 2.875133730023149425e-02
1.762112852018207776e-01 2.875133730023149425e-02
1.769979427250431836e-01 2.875133730023149425e-02
1.777846002482655896e-01 2.875133730023149425e-02
1.785712577714880234e-01 2.875133730023149425e-02
1.793579152947104294e-01 2.875133730023149425e-02
1.801445728179328354e-01 2.875133730023149425e-02
1.809312303411552414e-01 2.875133730023149425e-02
1.817178878643776752e-01 2.875133730023149425e-02
1.825045453876000812e-01 2.875133730023149425e-02
1.832912029108224872e-01 2.875133730023149425e-02
1.840778604340449209e-01 2.875133730023149425e-02
1.848645179572673269e-01 2.875133730023149425e-02
1.856511754804897329e-01 2.875133730023149425e-02
1.864378330037121390e-01 2.875133730023149425e-02
1.872244905269345727e-01 2.875133730023149425e-02
1.880111480501569787e-01 2.875133730023149425e-02
1.887978055733793847e-01 2.875133730023149425e-02
1.895844630966018185e-01 2.875133730023149425e-02
1.903711206198242245e-01 2.875133730023149425e-02
1.911577781430466305e-01 2.875133730023149425e-02
1.919444356662690365e-01 2.875133730023149425e-02
1.927310931894914703e-01 2.875133730023149425e-02
1.935177507127138763e-01 2.875133730023149425e-02
1.943044082359362823e-01 2.875133730023149425e-02
1.950910657591587161e-01 2.875133730023149425e-02
1.958777232823811221e-01 2.875133730023149425e-02
1.966643808056035281e-01 2.875133730023149425e-02
1.974510383288259618e-01 2.875133730023149425e-02
1.982376958520483679e-01 2.875133730023149425e-02
1.990243533752707739e-01 2.875133730023149425e-02
1.998110108984931799e-01 2.875133730023149425e-02
2.005976684217156136e-01 2.875133730023149425e-02
2.013843259449380196e-01 2.875133730023149425e-02
2.021709834681604256e-01 2.875133730023149425e-02
2.029576409913828594e-01 2.875133730023149425e-02
2.037442985146052654e-01 2.875133730023149425e-02
2.045309560378276714e-01 2.875133730023149425e-02
2.053176135610500774e-01 2.875133730023149425e-02
2.061042710842725112e-01 2.875133730023149425e-02
2.068909286074949172e-01 2.875133730023149425e-02
2.076775861307173232e-01 2.875133730023149425e-02
2.084642436539397570e-01 2.875133730023149425e-02
2.092509011771621630e-01 2.875133730023149425e-02
2.100375587003845690e-01 2.875133730023149425e-02
2.108242162236070028e-01 2.875133730023149425e-02
2.116108737468294088e-01 2.875133730023149425e-02
2.123975312700518148e-01 2.875133730023149425e-02
2.131841887932742208e-01 2.875133730023149425e-02
2.139708463164966545e-01 2.875133730023149425e-02
2.147575038397190605e-01 2.875133730023149425e-02
2.155441613629414666e-01 2.875133730023149425e-02
2.163308188861639003e-01 2.875133730023149425e-02
2.171174764093863063e-01 2.875133730023149425e-02
2.179041339326087123e-01 2.875133730023149425e-02
2.186907914558311183e-01 2.875133730023149425e-02
2.194774489790535521e-01 2.875133730023149425e-02
2.202641065022759581e-01 2.875133730023149425e-02
2.210507640254983641e-01 2.875133730023149425e-02
2.218374215487207979e-01 2.875133730023149425e-02
2.226240790719432039e-01 2.875133730023149425e-02
2.234107365951656099e-01 2.875133730023149425e-02
2.241973941183880159e-01 2.875133730023149425e-02
2.249840516416104497e-01 2.875133730023149425e-02
2.257707091648328557e-01 2.875133730023149425e-02
2.265573666880552617e-01 2.875133730023149425e-02
2.273440242112776954e-01 2.875133730023149425e-02
2.281306817345001015e-01 2.875133730023149425e-02
2.289173392577225075e-01 2.875133730023149425e-02
2.297039967809449412e-01 2.875133730023149425e-02
2.304906543041673472e-01 2.875133730023149425e-02
2.312773118273897532e-01 2.875133730023149425e-02
2.320639693506121592e-01 2.875133730023149425e-02
2.328506268738345930e-01 2.875133730023149425e-02
2.336372843970569990e-01 2.875133730023149425e-02
2.344239419202794050e-01 2.875133730023149425e-02
2.352105994435018388e-01 2.875133730023149425e-02
2.359972569667242448e-01 2.875133730023149425e-02
2.367839144899466508e-01 2.875133730023149425e-02
2.375705720131690568e-01 2.875133730023149425e-02
2.383572295363914906e-01 2.875133730023149425e-02
2.391438870596138966e-01 2.875133730023149425e-02
2.399305445828363026e-01 2.875133730023149425e-02
2.407172021060587364e-01 2.875133730023149425e-02
2.415038596292811424e-01 2.875133730023149425e-02
2.422905171525035484e-01 2.875133730023149425e-02
2.430771746757259821e-01 2.875133730023149425e-02
2.438638321989483881e-01 2.875133730023149425e-02
2.446504897221707941e-01 2.875133730023149425e-02
2.454371472453932002e-01 2.875133730023149425e-02
2.462238047686156339e-01 2.875133730023149425e-02
2.470104622918380399e-01 2.875133730023149425e-02
2.477971198150604459e-01 2.875133730023149425e-02
2.485837773382828797e-01 2.875133730023149425e-02
2.493704348615052857e-01 2.875133730023149425e-02
2.501570923847277195e-01 2.875133730023149425e-02
2.509437499079500977e-01 2.875133730023149425e-02
2.517304074311725315e-01 2.875133730023149425e-02
2.525170649543949652e-01 2.875133730023171630e-02
2.533037224776173435e-01 2.875133730023193834e-02
2.540903800008397773e-01 2.875133730023349266e-02
2.548770375240621555e-01 2.875133730023460288e-02
2.556636950472845893e-01 2.875133730024481693e-02
2.564503525705070230e-01 2.875133730025303258e-02
2.572370100937294013e-01 2.875133730031298462e-02
2.580236676169518351e-01 2.875133730036338875e-02
2.588103251401742688e-01 2.875133730068268889e-02
2.595969826633966471e-01 2.875133730096135487e-02
2.603836401866190808e-01 2.875133730249102015e-02
2.611702977098415146e-01 2.875133730388523823e-02
2.619569552330638929e-01 2.875133731048662433e-02
2.627436127562863266e-01 2.875133731680268312e-02
2.635302702795087604e-01 2.875133734251966722e-02
2.643169278027311386e-01 2.875133736847845789e-02
2.651035853259535724e-01 2.875133745908553529e-02
2.658902428491760062e-01 2.875133755608239028e-02
2.666769003723983844e-01 2.875133784565786499e-02
2.674635578956208182e-01 2.875133817600539210e-02
2.682502154188431964e-01 2.875133901960058580e-02
2.690368729420656302e-01 2.875134004863411086e-02
2.698235304652880640e-01 2.875134230660347789e-02
2.706101879885104422e-01 2.875134525288181031e-02
2.713968455117328760e-01 2.875135087376445853e-02
2.721835030349553097e-01 2.875135868203515521e-02
2.729701605581776880e-01 2.875137191621934818e-02
2.737568180814001217e-01 2.875139125582992783e-02
2.745434756046225555e-01 2.875142130540342400e-02
2.753301331278449338e-01 2.875146661755412225e-02
2.761167906510673675e-01 2.875153353527526434e-02
2.769034481742898013e-01 2.875163531755076107e-02
2.776901056975121795e-01 2.875178269699629752e-02
2.784767632207346133e-01 2.875200456692050821e-02
2.792634207439570471e-01 2.875232512245773364e-02
2.800500782671794253e-01 2.875279829741228532e-02
2.808367357904018591e-01 2.875348241413311356e-02
2.816233933136242373e-01 2.875447257132335288e-02
2.824100508368466711e-01 2.875589746883688846e-02
2.831967083600691049e-01 2.875792851636971292e-02
2.839833658832914831e-01 2.876082037134941594e-02
2.847700234065139169e-01 2.876489514197166919e-02
2.855566809297363506e-01 2.877062025107446352e-02
2.863433384529587289e-01 2.877860370084683872e-02
2.871299959761811627e-01 2.878967502810247936e-02
2.879166534994035964e-01 2.880494358809482236e-02
2.887033110226259747e-01 2.882586344772475329e-02
2.894899685458484084e-01 2.885437165560511552e-02
2.902766260690708422e-01 2.889297601618490141e-02
2.910632835922932204e-01 2.894494186320950568e-02
2.918499411155156542e-01 2.901447417568947529e-02
2.926365986387380325e-01 2.910693326894553401e-02
2.934232561619604662e-01 2.922913773800495107e-02
2.942099136851829000e-01 2.938965580732011418e-02
2.949965712084052782e-01 2.959919435920643771e-02
2.957832287316277120e-01 2.987102850732559212e-02
2.965698862548501458e-01 3.022145889938321339e-02
2.973565437780725240e-01 3.067036580546256275e-02
2.981432013012949578e-01 3.124176658372324056e-02
2.989298588245173915e-01 3.196442003909694130e-02
2.997165163477397698e-01 3.287246967040879930e-02
3.005031738709622036e-01 3.400604408571328285e-02
3.012898313941846373e-01 3.541185769785104576e-02
3.020764889174070156e-01 3.714373773447721128e-02
3.028631464406294493e-01 3.926301655093555887e-02
3.036498039638518831e-01 4.183879887117192276e-02
3.044364614870742614e-01 4.494798946819900110e-02
3.052231190102966951e-01 4.867503870117739773e-02
3.060097765335190734e-01 5.311137572313739952e-02
3.067964340567415071e-01 5.835440668028812894e-02
3.075830915799639409e-01 6.450606007514769757e-02
3.083697491031863192e-01 7.167083293351472761e-02
3.091564066264087529e-01 7.995325711538092683e-02
3.099430641496311867e-01 8.945481258902110433e-02
3.107297216728535649e-01 1.002702876357690620e-01
3.115163791960759987e-01 1.124835768836969230e-01
3.123030367192984325e-01 1.261630556187229857e-01
3.130896942425208107e-01 1.413565832924397192e-01
3.138763517657432445e-01 1.580862955897754940e-01
3.146630092889656782e-01 1.763433855034390874e-01
3.154496668121880565e-01 1.960830882631809935e-01
3.162363243354104902e-01 2.172200923840816866e-01
3.170229818586329240e-01 2.396247075976642993e-01
3.178096393818553023e-01 2.631200245678928518e-01
3.185962969050777360e-01 2.874803420049978353e-01
3.193829544283001143e-01 3.124311811985902576e-01
3.201696119515225480e-01 3.376510207778478101e-01
3.209562694747449818e-01 3.627749881584567682e-01
3.217429269979673601e-01 3.874005643232352192e-01
3.225295845211897938e-01 4.110953171341713563e-01
3.233162420444122276e-01 4.334065439632470706e-01
3.241028995676346058e-01 4.538726669716477424e-01
3.248895570908570396e-01 4.720360248573520767e-01
3.256762146140794734e-01 4.874566671430629050e-01
3.264628721373018516e-01 4.997266827505977282e-01
3.272495296605242854e-01 5.084844400436046019e-01
3.280361871837467191e-01 5.134281625495726864e-01
3.288228447069690974e-01 5.143282165479849954e-01
3.296095022301915312e-01 5.110374841651941225e-01
3.303961597534139649e-01 5.034992767480614972e-01
3.311828172766363432e-01 4.917523590579813142e-01
3.319694747998587769e-01 4.759326914037134149e-01
3.327561323230811552e-01 4.562717178640649518e-01
3.335427898463035890e-01 4.330911793646363694e-01
3.343294473695260227e-01 4.067945432143944551e-01
3.351161048927484010e-01 3.778553766024110860e-01
3.359027624159708347e-01 3.468031222649230472e-01
3.366894199391932685e-01 3.142068391443499920e-01
3.374760774624156467e-01 2.806576038364974046e-01
3.382627349856380805e-01 2.467503448899399654e-01
3.390493925088605143e-01 2.130658635447213456e-01
3.398360500320828925e-01 1.801538027711233614e-01
3.406227075553053263e-01 1.485172850776210751e-01
3.414093650785277601e-01 1.185997994072316430e-01
3.421960226017501383e-01 9.077480383040303913e-02
3.429826801249725721e-01 6.533840657805201069e-02
3.437693376481950058e-01 4.250526041431368363e-02
3.445559951714173841e-01 2.240767548922995012e-02
3.453426526946398178e-01 5.097817547524252646e-03
3.461293102178621961e-01 -9.447312923923645300e-03
3.469159677410846299e-01 -2.131853892880353207e-02
3.477026252643070636e-01 -3.066526574302563812e-02
3.484892827875294419e-01 -3.768489135971764270e-02
3.492759403107518756e-01 -4.261145007484534730e-02
3.500625978339743094e-01 -4.570401561873760343e-02
3.508492553571966877e-01 -4.723538039888486306e-02
3.516359128804191214e-01 -4.748147370249422572e-02
3.524225704036415552e-01 -4.671187444568258851e-02
3.532092279268639334e-01 -4.518167929276029060e-02
3.539958854500863672e-01 -4.312494324629922993e-02
3.547825429733088010e-01 -4.074975770029010125e-02
3.555692004965311792e-01 -3.823496433444029119e-02
3.563558580197536130e-01 -3.572844242435624373e-02
3.571425155429760467e-01 -3.334683485975220574e-02
3.579291730661984250e-01 -3.117650609497080172e-02
3.587158305894208588e-01 -2.927553869821086785e-02
3.595024881126432370e-01 -2.767653964958904922e-02
3.602891456358656708e-01 -2.638999829787525009e-02
3.610758031590881045e-01 -2.540798200432947684e-02
3.618624606823104828e-01 -2.470797144548986246e-02
3.626491182055329165e-01 -2.425663611790562779e-02
3.634357757287553503e-01 -2.401339688185866184e-02
3.642224332519777286e-01 -2.393367360058806792e-02
3.650090907752001623e-01 -2.397171011128551577e-02
3.657957482984225961e-01 -2.408291531182615852e-02
3.665824058216449743e-01 -2.422571285032959487e-02
3.673690633448674081e-01 -2.436289299998384283e-02
3.681557208680898419e-01 -2.446247407939128315e-02
3.689423783913122201e-01 -2.449813007689072286e-02
3.697290359145346539e-01 -2.444924316153174182e-02
3.705156934377570321e-01 -2.430062785881537124e-02
3.713023509609794659e-01 -2.404201541073780479e-02
3.720890084842018997e-01 -2.366738149601432806e-02
3.728756660074242779e-01 -2.317417690981526945e-02
3.736623235306467117e-01 -2.256253127674034964e-02
3.744489810538691454e-01 -2.183451057634766546e-02
3.752356385770915237e-01 -2.099347216883573619e-02
3.760222961003139575e-01 -2.004354934938656907e-02
3.768089536235363912e-01 -1.898931944762338730e-02
3.775956111467587695e-01 -1.783566634959654618e-02
3.783822686699812032e-01 -1.658783942524444388e-02
3.791689261932036370e-01 -1.525171055030727363e-02
3.799555837164260153e-01 -1.383422693337310605e-02
3.807422412396484490e-01 -1.234400987421402363e-02
3.815288987628708828e-01 -1.079208235459494514e-02
3.823155562860932610e-01 -9.192700595934466534e-03
3.831022138093156948e-01 -7.564246852629907814e-03
3.838888713325380730e-01 -5.930134454823376977e-03
3.846755288557605068e-01 -4.319700956316396834e-03
3.854621863789829406e-01 -2.769051015978463148e-03
3.862488439022053188e-01 -1.321801773303987737e-03
3.870355014254277526e-01 -2.972907866083396300e-05
3.878221589486501863e-01 1.046719277941088322e-03
3.886088164718725646e-01 1.838064774150272029e-03
3.893954739950949984e-01 2.265627015742843753e-03
3.901821315183174321e-01 2.241517353973820903e-03
3.909687890415398104e-01 1.668835531878354317e-03
3.917554465647622441e-01 4.420690956268291671e-04
3.925421040879846779e-01 -1.552288898876597045e-03
3.933287616112070562e-01 -4.434892066294882085e-03
3.941154191344294899e-01 -8.332433449488085841e-03
3.949020766576519237e-01 -1.337626902598310075e-02
3.956887341808743019e-01 -1.970076121217689824e-02
3.964753917040967357e-01 -2.744128457049499481e-02
3.972620492273191140e-01 -3.673187530061972073e-02
3.980487067505415477e-01 -4.770249567834206061e-02
3.988353642737639815e-01 -6.047589229132377397e-02
3.996220217969863597e-01 -7.516400969839931445e-02
4.004086793202087935e-01 -9.186396355354664589e-02
4.011953368434312273e-01 -1.106535768457476143e-01
4.019819943666536055e-01 -1.315865000309954791e-01
4.027686518898760393e-01 -1.546869853030973241e-01
4.035553094130984730e-01 -1.799444136120106341e-01
4.043419669363208513e-01 -2.073076915032326939e-01
4.051286244595432851e-01 -2.366796918143609929e-01
4.059152819827657188e-01 -2.679119681215814675e-01
4.067019395059880971e-01 -3.008000052853944117e-01
4.074885970292105308e-01 -3.350792802934124959e-01
4.082752545524329646e-01 -3.704224630769548110e-01
4.090619120756553428e-01 -4.064380952154085236e-01
4.098485695988777766e-01 -4.426710648951845961e-01
4.106352271221001549e-01 -4.786051931522852243e-01
4.114218846453225886e-01 -5.136681859713352338e-01
4.122085421685450224e-01 -5.472391455375298364e-01
4.129951996917674006e-01 -5.786587196071464323e-01
4.137818572149898344e-01 -6.072418982317185909e-01
4.145685147382122682e-01 -6.322933073181227215e-01
4.153551722614346464e-01 -6.531246959531820107e-01
4.161418297846570802e-01 -6.690741932754871168e-01
4.169284873078795139e-01 -6.795267641941633574e-01
4.177151448311018922e-01 -6.839351787176989328e-01
4.185018023543243260e-01 -6.818406711330127212e-01
4.192884598775467597e-01 -6.728924451684380470e-01
4.200751174007691380e-01 -6.568651153320406166e-01
4.208617749239915717e-01 -6.336732151160799908e-01
4.216484324472140055e-01 -6.033819628731451612e-01
4.224350899704363838e-01 -5.662135981140671293e-01
4.232217474936588175e-01 -5.225487456327108093e-01
4.240084050168811958e-01 -4.729224762508463797e-01
4.247950625401036295e-01 -4.180149823583133584e-01
4.255817200633260633e-01 -3.586370047607023714e-01
4.263683775865484415e-01 -2.957104023866111708e-01
4.271550351097708753e-01 -2.302444997021310114e-01
4.279416926329933091e-01 -1.633090743591464333e-01
4.287283501562156873e-01 -9.600499174319443441e-02
4.295150076794381211e-01 -2.943363077951610673e-02
4.303016652026605549e-01 3.533367895597838704e-02
4.310883227258829331e-01 9.728501159750302385e-02
4.318749802491053669e-01 1.554948321078302165e-01
4.326616377723278006e-01 2.091475925377486167e-01
4.334482952955501789e-01 2.575570475433763828e-01
4.342349528187726126e-01 3.001806781685454339e-01
4.350216103419950464e-01 3.366287932673810435e-01
4.358082678652174247e-01 3.666681480199078802e-01
4.365949253884398584e-01 3.902201714271480437e-01
4.373815829116622367e-01 4.073541471999366781e-01
4.381682404348846704e-01 4.182758938009172311e-01
4.389548979581071042e-01 4.233126226771255496e-01
4.397415554813294825e-01 4.228948460712347313e-01
4.405282130045519162e-01 4.175362282356331889e-01
4.413148705277743500e-01 4.078123328574758677e-01
4.421015280509967282e-01 3.943391523019375011e-01
4.428881855742191620e-01 3.777522971404447816e-01
4.436748430974415958e-01 3.586875724782347952e-01
4.444615006206639740e-01 3.377635526111817388e-01
4.452481581438864078e-01 3.155666209498630970e-01
4.460348156671088415e-01 2.926387845103664009e-01
4.468214731903312198e-01 2.694684171249523974e-01
4.476081307135536536e-01 2.464839239106633162e-01
4.483947882367760318e-01 2.240502208365857673e-01
4.491814457599984656e-01 2.024677908288423644e-01
4.499681032832208993e-01 1.819739998513927315e-01
4.507547608064432776e-01 1.627463070755481578e-01
4.515414183296657114e-01 1.449069651664196545e-01
4.523280758528881451e-01 1.285287989082026794e-01
4.531147333761105234e-01 1.136416627941980728e-01
4.539013908993329571e-01 1.002392221928662952e-01
4.546880484225553909e-01 8.828573252618632239e-02
4.554747059457777691e-01 7.772253699578657304e-02
4.562613634690002029e-01 6.847408719052694437e-02
4.570480209922226367e-01 6.045333433328270445e-02
4.578346785154450149e-01 5.356639055568201968e-02
4.586213360386674487e-01 4.771640936821808232e-02
4.594079935618898825e-01 4.280669935184655550e-02
4.601946510851122607e-01 3.874311010673814337e-02
4.609813086083346945e-01 3.543574008788374918e-02
4.617679661315570727e-01 3.280005519685236237e-02
4.625546236547795065e-01 3.075752693718936115e-02
4.633412811780019402e-01 2.923587758272350179e-02
4.641279387012243185e-01 2.816902580807889578e-02
4.649145962244467523e-01 2.749682523608409923e-02
4.657012537476691860e-01 2.716468663874049838e-02
4.664879112708915643e-01 2.712313422083290071e-02
4.672745687941139980e-01 2.732734588011287435e-02
4.680612263173364318e-01 2.773672602437904366e-02
4.688478838405588101e-01 2.831453364531610895e-02