0.000000000000000000e+00 2.686477924106789317e-02
7.866575232224141392e-04 2.875133730023149425e-02
1.573315046444828278e-03 2.875133730023149425e-02
2.359972569667242309e-03 2.875133730023149425e-02
3.146630092889656557e-03 2.875133730023149425e-02
3.933287616112070804e-03 2.875133730023149425e-02
4.719945139334484618e-03 2.875133730023149425e-02
5.506602662556899300e-03 2.875133730023149425e-02
6.293260185779313114e-03 2.875133730023149425e-02
7.079917709001726928e-03 2.875133730023149425e-02
7.866575232224141609e-03 2.875133730023149425e-02
8.653232755446556290e-03 2.875133730023149425e-02
9.439890278668969237e-03 2.875133730023149425e-02
1.022654780189138392e-02 2.875133730023149425e-02
1.101320532511379860e-02 2.875133730023149425e-02
1.179986284833621155e-02 2.875133730023149425e-02
1.258652037155862623e-02 2.875133730023149425e-02
1.337317789478104091e-02 2.875133730023149425e-02
1.415983541800345386e-02 2.875133730023149425e-02
1.494649294122586854e-02 2.875133730023149425e-02
1.573315046444828322e-02 2.875133730023149425e-02
1.651980798767069616e-02 2.875133730023149425e-02
1.730646551089311258e-02 2.875133730023149425e-02
1.809312303411552553e-02 2.875133730023149425e-02
1.887978055733793847e-02 2.875133730023149425e-02
1.966643808056035489e-02 2.875133730023149425e-02
2.045309560378276784e-02 2.875133730023149425e-02
2.123975312700518078e-02 2.875133730023149425e-02
2.202641065022759720e-02 2.875133730023149425e-02
2.281306817345001015e-02 2.875133730023149425e-02
2.359972569667242309e-02 2.875133730023149425e-02
2.438638321989483951e-02 2.875133730023149425e-02
2.517304074311725245e-02 2.875133730023149425e-02
2.595969826633966540e-02 2.875133730023149425e-02
2.674635578956208182e-02 2.875133730023149425e-02
2.753301331278449476e-02 2.875133730023149425e-02
2.831967083600690771e-02 2.875133730023149425e-02
2.910632835922932413e-02 2.875133730023149425e-02
2.989298588245173707e-02 2.875133730023149425e-02
3.067964340567415002e-02 2.875133730023149425e-02
3.146630092889656644e-02 2.875133730023149425e-02
3.225295845211897938e-02 2.875133730023149425e-02
3.303961597534139233e-02 2.875133730023149425e-02
3.382627349856380528e-02 2.875133730023149425e-02
3.461293102178622516e-02 2.875133730023149425e-02
3.539958854500863811e-02 2.875133730023149425e-02
3.618624606823105105e-02 2.875133730023149425e-02
3.697290359145346400e-02 2.875133730023149425e-02
3.775956111467587695e-02 2.875133730023149425e-02
3.854621863789828989e-02 2.875133730023149425e-02
3.933287616112070978e-02 2.875133730023149425e-02
4.011953368434312273e-02 2.875133730023149425e-02
4.090619120756553567e-02 2.875133730023149425e-02
4.169284873078794862e-02 2.875133730023149425e-02
4.247950625401036157e-02 2.875133730023149425e-02
4.326616377723277451e-02 2.875133730023149425e-02
4.405282130045519440e-02 2.875133730023149425e-02
4.483947882367760734e-02 2.875133730023149425e-02
4.562613634690002029e-02 2.875133730023149425e-02
4.641279387012243324e-02 2.875133730023149425e-02
4.719945139334484618e-02 2.875133730023149425e-02
4.798610891656725913e-02 2.875133730023149425e-02
4.877276643978967902e-02 2.875133730023149425e-02
4.955942396301209196e-02 2.875133730023149425e-02
5.034608148623450491e-02 2.875133730023149425e-02
5.113273900945691786e-02 2.875133730023149425e-02
5.191939653267933080e-02 2.875133730023149425e-02
5.270605405590175069e-02 2.875133730023149425e-02
5.349271157912416363e-02 2.875133730023149425e-02
5.427936910234657658e-02 2.875133730023149425e-02
5.506602662556898953e-02 2.875133730023149425e-02
5.585268414879140247e-02 2.875133730023149425e-02
5.663934167201381542e-02 2.875133730023149425e-02
5.742599919523623531e-02 2.875133730023149425e-02
5.821265671845864825e-02 2.875133730023149425e-02
5.899931424168106120e-02 2.875133730023149425e-02
5.978597176490347415e-02 2.875133730023149425e-02
6.057262928812588709e-02 2.875133730023149425e-02
6.135928681134830004e-02 2.875133730023149425e-02
6.214594433457071992e-02 2.875133730023149425e-02
6.293260185779313287e-02 2.875133730023149425e-02
6.371925938101553888e-02 2.875133730023149425e-02
6.450591690423795876e-02 2.875133730023149425e-02
6.529257442746037865e-02 2.875133730023149425e-02
6.607923195068278466e-02 2.875133730023149425e-02
6.686588947390520454e-02 2.875133730023149425e-02
6.765254699712761055e-02 2.875133730023149425e-02
6.843920452035003044e-02 2.875133730023149425e-02
6.922586204357245032e-02 2.875133730023149425e-02
7.001251956679485633e-02 2.875133730023149425e-02
7.079917709001727621e-02 2.875133730023149425e-02
7.158583461323968222e-02 2.875133730023149425e-02
7.237249213646210211e-02 2.875133730023149425e-02
7.315914965968450812e-02 2.875133730023149425e-02
7.394580718290692800e-02 2.875133730023149425e-02
7.473246470612934789e-02 2.875133730023149425e-02
7.551912222935175389e-02 2.875133730023149425e-02
7.630577975257417378e-02 2.875133730023149425e-02
7.709243727579657979e-02 2.875133730023149425e-02
7.787909479901899967e-02 2.875133730023149425e-02
7.866575232224141956e-02 2.875133730023149425e-02
7.945240984546382557e-02 2.875133730023149425e-02
8.023906736868624545e-02 2.875133730023149425e-02
8.102572489190865146e-02 2.875133730023149425e-02
8.181238241513107134e-02 2.875133730023149425e-02
8.259903993835349123e-02 2.875133730023149425e-02
8.338569746157589724e-02 2.875133730023149425e-02
8.417235498479831712e-02 2.875133730023149425e-02
8.495901250802072313e-02 2.875133730023149425e-02
8.574567003124314302e-02 2.875133730023149425e-02
8.653232755446554902e-02 2.875133730023149425e-02
8.731898507768796891e-02 2.875133730023149425e-02
8.810564260091038880e-02 2.875133730023149425e-02
8.889230012413279480e-02 2.875133730023149425e-02
8.967895764735521469e-02 2.875133730023149425e-02
9.046561517057762070e-02 2.875133730023149425e-02
9.125227269380004058e-02 2.875133730023149425e-02
9.203893021702246047e-02 2.875133730023149425e-02
9.282558774024486647e-02 2.875133730023149425e-02
9.361224526346728636e-02 2.875133730023149425e-02
9.439890278668969237e-02 2.875133730023149425e-02
9.518556030991211225e-02 2.875133730023149425e-02
9.597221783313451826e-02 2.875133730023149425e-02
9.675887535635693815e-02 2.875133730023149425e-02
9.754553287957935803e-02 2.875133730023149425e-02
9.833219040280176404e-02 2.875133730023149425e-02
9.911884792602418393e-02 2.875133730023149425e-02
9.990550544924658993e-02 2.875133730023149425e-02
1.006921629724690098e-01 2.875133730023149425e-02
1.014788204956914297e-01 2.875133730023149425e-02
1.022654780189138357e-01 2.875133730023149425e-02
1.030521355421362556e-01 2.875133730023149425e-02
1.038387930653586616e-01 2.875133730023149425e-02
1.046254505885810815e-01 2.875133730023149425e-02
1.054121081118035014e-01 2.875133730023149425e-02
1.061987656350259074e-01 2.875133730023149425e-02
1.069854231582483273e-01 2.875133730023149425e-02
1.077720806814707333e-01 2.875133730023149425e-02
1.085587382046931532e-01 2.875133730023149425e-02
1.093453957279155592e-01 2.875133730023149425e-02
1.101320532511379791e-01 2.875133730023149425e-02
1.109187107743603989e-01 2.875133730023149425e-02
1.117053682975828049e-01 2.875133730023149425e-02
1.124920258208052248e-01 2.875133730023149425e-02
1.132786833440276308e-01 2.875133730023149425e-02
1.140653408672500507e-01 2.875133730023149425e-02
1.148519983904724706e-01 2.875133730023149425e-02
1.156386559136948766e-01 2.875133730023149425e-02
1.164253134369172965e-01 2.875133730023149425e-02
1.172119709601397025e-01 2.875133730023149425e-02
1.179986284833621224e-01 2.875133730023149425e-02
1.187852860065845284e-01 2.875133730023149425e-02
1.195719435298069483e-01 2.875133730023149425e-02
1.203586010530293682e-01 2.875133730023149425e-02
1.211452585762517742e-01 2.875133730023149425e-02
1.219319160994741941e-01 2.875133730023149425e-02
1.227185736226966001e-01 2.875133730023149425e-02
1.235052311459190200e-01 2.875133730023149425e-02
1.242918886691414398e-01 2.875133730023149425e-02
1.250785461923638597e-01 2.875133730023149425e-02
1.258652037155862657e-01 2.875133730023149425e-02
1.266518612388086718e-01 2.875133730023149425e-02
1.274385187620310778e-01 2.875133730023149425e-02
1.282251762852535115e-01 2.875133730023149425e-02
1.290118338084759175e-01 2.875133730023149425e-02
1.297984913316983235e-01 2.875133730023149425e-02
1.305851488549207573e-01 2.875133730023149425e-02
1.313718063781431633e-01 2.875133730023149425e-02
1.321584639013655693e-01 2.875133730023149425e-02
1.329451214245880031e-01 2.875133730023149425e-02
1.337317789478104091e-01 2.875133730023149425e-02
1.345184364710328151e-01 2.875133730023149425e-02
1.353050939942552211e-01 2.875133730023149425e-02
1.360917515174776549e-01 2.875133730023149425e-02
1.368784090407000609e-01 2.875133730023149425e-02
1.376650665639224669e-01 2.875133730023149425e-02
1.384517240871449006e-01 2.875133730023149425e-02
1.392383816103673067e-01 2.875133730023149425e-02
1.400250391335897127e-01 2.875133730023149425e-02
1.408116966568121187e-01 2.875133730023149425e-02
1.415983541800345524e-01 2.875133730023149425e-02
1.423850117032569584e-01 2.875133730023149425e-02
1.431716692264793644e-01 2.875133730023149425e-02
1.439583267497017982e-01 2.875133730023149425e-02
1.447449842729242042e-01 2.875133730023149425e-02
1.455316417961466102e-01 2.875133730023149425e-02
1.463182993193690162e-01 2.875133730023149425e-02
1.471049568425914500e-01 2.875133730023149425e-02
1.478916143658138560e-01 2.875133730023149425e-02
1.486782718890362620e-01 2.875133730023149425e-02
1.494649294122586958e-01 2.875133730023149425e-02
1.502515869354811018e-01 2.875133730023149425e-02
1.510382444587035078e-01 2.875133730023149425e-02
1.518249019819259416e-01 2.875133730023149425e-02
1.526115595051483476e-01 2.875133730023149425e-02
1.533982170283707536e-01 2.875133730023149425e-02
1.541848745515931596e-01 2.875133730023149425e-02
1.549715320748155933e-01 2.875133730023149425e-02
1.557581895980379993e-01 2.875133730023149425e-02
1.565448471212604054e-01 2.875133730023149425e-02
1.573315046444828391e-01 2.875133730023149425e-02
1.581181621677052451e-01 2.875133730023149425e-02
1.589048196909276511e-01 2.875133730023149425e-02
1.596914772141500571e-01 2.875133730023149425e-02
1.604781347373724909e-01 2.875133730023149425e-02
1.612647922605948969e-01 2.875133730023149425e-02
1.620514497838173029e-01 2.875133730023149425e-02
1.628381073070397367e-01 2.875133730023149425e-02
1.636247648302621427e-01 2.875133730023149425e-02
1.644114223534845487e-01 2.875133730023149425e-02
1.651980798767069825e-01 2.875133730023149425e-02
1.659847373999293885e-01 2.875133730023149425e-02
1.667713949231517945e-01 2.875133730023149425e-02
1.675580524463742005e-01 2.875133730023149425e-02
1.683447099695966342e-01 2.875133730023149425e-02
1.691313674928190403e-01 2.875133730023149425e-02
1.699180250160414463e-01 2.875133730023149425e-02
1.707046825392638800e-01 2.875133730023149425e-02
1.714913400624862860e-01 2.875133730023149425e-02
1.722779975857086920e-01 2.875133730023149425e-02
1.730646551089310980e-01 2.875133730023149425e-02
1.738513126321535318e-01 2.875133730023149425e-02
1.746379701553759378e-01 2.875133730023149425e-02
1.754246276785983438e-01 2.875133730023149425e-02
1.762112852018207776e-01 2.875133730023149425e-02
1.769979427250431836e-01 2.875133730023149425e-02
1.777846002482655896e-01 2.875133730023149425e-02
1.785712577714880234e-01 2.875133730023149425e-02
1.793579152947104294e-01 2.875133730023149425e-02
1.801445728179328354e-01 2.875133730023149425e-02
1.809312303411552414e-01 2.875133730023149425e-02
1.817178878643776752e-01 2.875133730023149425e-02
1.825045453876000812e-01 2.875133730023149425e-02
1.832912029108224872e-01 2.875133730023149425e-02
1.840778604340449209e-01 2.875133730023149425e-02
1.848645179572673269e-01 2.875133730023149425e-02
1.856511754804897329e-01 2.875133730023149425e-02
1.864378330037121390e-01 2.875133730023149425e-02
1.872244905269345727e-01 2.875133730023149425e-02
1.880111480501569787e-01 2.875133730023149425e-02
1.887978055733793847e-01 2.875133730023149425e-02
1.895844630966018185e-01 2.875133730023149425e-02
1.903711206198242245e-01 2.875133730023149425e-02
1.911577781430466305e-01 2.875133730023149425e-02
1.919444356662690365e-01 2.875133730023149425e-02
1.927310931894914703e-01 2.875133730023149425e-02
1.935177507127138763e-01 2.875133730023149425e-02
1.943044082359362823e-01 2.875133730023149425e-02
1.950910657591587161e-01 2.875133730023149425e-02
1.958777232823811221e-01 2.875133730023149425e-02
1.966643808056035281e-01 2.875133730023149425e-02
1.974510383288259618e-01 2.875133730023149425e-02
1.982376958520483679e-01 2.875133730023149425e-02
1.990243533752707739e-01 2.875133730023149425e-02
1.998110108984931799e-01 2.875133730023149425e-02
2.005976684217156136e-01 2.875133730023149425e-02
2.013843259449380196e-01 2.875133730023149425e-02
2.021709834681604256e-01 2.875133730023149425e-02
2.029576409913828594e-01 2.875133730023149425e-02
2.037442985146052654e-01 2.875133730023149425e-02
2.045309560378276714e-01 2.875133730023149425e-02
2.053176135610500774e-01 2.875133730023149425e-02
2.061042710842725112e-01 2.875133730023149425e-02
2.068909286074949172e-01 2.875133730023149425e-02
2.076775861307173232e-01 2.875133730023149425e-02
2.084642436539397570e-01 2.875133730023149425e-02
2.092509011771621630e-01 2.875133730023149425e-02
2.100375587003845690e-01 2.875133730023149425e-02
2.108242162236070028e-01 2.875133730023149425e-02
2.116108737468294088e-01 2.875133730023149425e-02
2.123975312700518148e-01 2.875133730023149425e-02
2.131841887932742208e-01 2.875133730023149425e-02
2.139708463164966545e-01 2.875133730023149425e-02
2.147575038397190605e-01 2.875133730023149425e-02
2.155441613629414666e-01 2.875133730023149425e-02
2.163308188861639003e-01 2.875133730023149425e-02
2.171174764093863063e-01 2.875133730023149425e-02
2.179041339326087123e-01 2.875133730023149425e-02
2.186907914558311183e-01 2.875133730023149425e-02
2.194774489790535521e-01 2.875133730023149425e-02
2.202641065022759581e-01 2.875133730023149425e-02
2.210507640254983641e-01 2.875133730023149425e-02
2.218374215487207979e-01 2.875133730023149425e-02
2.226240790719432039e-01 2.875133730023149425e-02
2.234107365951656099e-01 2.875133730023149425e-02
2.241973941183880159e-01 2.875133730023149425e-02
2.249840516416104497e-01 2.875133730023149425e-02
2.257707091648328557e-01 2.875133730023149425e-02
2.265573666880552617e-01 2.875133730023149425e-02
2.273440242112776954e-01 2.875133730023149425e-02
2.281306817345001015e-01 2.875133730023149425e-02
2.289173392577225075e-01 2.875133730023149425e-02
2.297039967809449412e-01 2.875133730023149425e-02
2.304906543041673472e-01 2.875133730023149425e-02
2.312773118273897532e-01 2.875133730023149425e-02
2.320639693506121592e-01 2.875133730023149425e-02
2.328506268738345930e-01 2.875133730023149425e-02
2.336372843970569990e-01 2.875133730023149425e-02
2.344239419202794050e-01 2.875133730023149425e-02
2.352105994435018388e-01 2.875133730023149425e-02
2.359972569667242448e-01 2.875133730023149425e-02
2.367839144899466508e-01 2.875133730023149425e-02
2.375705720131690568e-01 2.875133730023149425e-02
2.383572295363914906e-01 2.875133730023149425e-02
2.391438870596138966e-01 2.875133730023149425e-02
2.399305445828363026e-01 2.875133730023149425e-02
2.407172021060587364e-01 2.875133730023149425e-02
2.415038596292811424e-01 2.875133730023149425e-02
2.422905171525035484e-01 2.875133730023149425e-02
2.430771746757259821e-01 2.875133730023149425e-02
2.438638321989483881e-01 2.875133730023149425e-02
2.446504897221707941e-01 2.875133730023149425e-02
2.454371472453932002e-01 2.875133730023149425e-02
2.462238047686156339e-01 2.875133730023149425e-02
2.470104622918380399e-01 2.875133730023171630e-02
2.477971198150604459e-01 2.875133730023193834e-02
2.485837773382828797e-01 2.875133730023304857e-02
2.493704348615052857e-01 2.875133730023393674e-02
2.501570923847277195e-01 2.875133730023970990e-02
2.509437499079500977e-01 2.875133730024570511e-02
2.517304074311725315e-01 2.875133730027545909e-02
2.525170649543949652e-01 2.875133730030765555e-02
2.533037224776173435e-01 2.875133730044976410e-02
2.540903800008397773e-01 2.875133730060652759e-02
2.548770375240621555e-01 2.875133730123136111e-02
2.556636950472845893e-01 2.875133730193568660e-02
2.564503525705070230e-01 2.875133730445544877e-02
2.572370100937294013e-01 2.875133730736623150e-02
2.580236676169518351e-01 2.875133731670254100e-02
2.588103251401742688e-01 2.875133732778567541e-02
2.595969826633966471e-01 2.875133735961687975e-02
2.603836401866190808e-01 2.875133739855773030e-02
2.611702977098415146e-01 2.875133749864811072e-02
2.619569552330638929e-01 2.875133762515669211e-02
2.627436127562863266e-01 2.875133791650097415e-02
2.635302702795087604e-01 2.875133829765674776e-02
2.643169278027311386e-01 2.875133908716587250e-02
2.651035853259535724e-01 2.875134015675429033e-02
2.658902428491760062e-01 2.875134216487484906e-02
2.666769003723983844e-01 2.875134497695364111e-02
2.674635578956208182e-01 2.875134982276716933e-02
2.682502154188431964e-01 2.875135680294738094e-02
2.690368729420656302e-01 2.875136803535793817e-02
2.698235304652880640e-01 2.875138454348435957e-02
2.706101879885104422e-01 2.875140985140567373e-02
2.713968455117328760e-01 2.875144740874957527e-02
2.721835030349553097e-01 2.875150330661901954e-02
2.729701605581776880e-01 2.875158621017015470e-02
2.737568180814001217e-01 2.875170764815471180e-02
2.745434756046225555e-01 2.875188627230329530e-02
2.753301331278449338e-01 2.875214552027238746e-02
2.761167906510673675e-01 2.875252225762947589e-02
2.769034481742898013e-01 2.875306461108162459e-02
2.776901056975121795e-01 2.875384270257486108e-02
2.784767632207346133e-01 2.875495213963752406e-02
2.792634207439570471e-01 2.875652461212307998e-02
2.800500782671794253e-01 2.875874194363436942e-02
2.808367357904018591e-01 2.876184905315959384e-02
2.816233933136242373e-01 2.876617943353321216e-02
2.824100508368466711e-01 2.877217993626568493e-02
2.831967083600691049e-01 2.878044608455665454e-02
2.839833658832914831e-01 2.879177091734885785e-02
2.847700234065139169e-01 2.880719328568037696e-02
2.855566809297363506e-01 2.882807917250040930e-02
2.863433384529587289e-01 2.885619557685359382e-02
2.871299959761811627e-01 2.889382919422245344e-02
2.879166534994035964e-01 2.894390282262282454e-02
2.887033110226259747e-01 2.901013997804557931e-02
2.894899685458484084e-01 2.909723691615728747e-02
2.902766260690708422e-01 2.921108591341625704e-02
2.910632835922932204e-01 2.935901371330751353e-02
2.918499411155156542e-01 2.955006831433637515e-02
2.926365986387380325e-01 2.979533699322423068e-02
2.934232561619604662e-01 3.010828697601297677e-02
2.942099136851829000e-01 3.050516467965680434e-02
2.949965712084052782e-01 3.100537692585714211e-02
2.957832287316277120e-01 3.163193572669276143e-02
2.965698862548501458e-01 3.241186400907070109e-02
2.973565437780725240e-01 3.337661325997109962e-02
2.981432013012949578e-01 3.456244186286139275e-02
2.989298588245173915e-01 3.601072367138846708e-02
2.997165163477397698e-01 3.776818299765638542e-02
3.005031738709622036e-01 3.988700406644674068e-02
3.012898313941846373e-01 4.242477081215634271e-02
3.020764889174070156e-01 4.544424379604250497e-02
3.028631464406294493e-01 4.901286687165407052e-02
3.036498039638518831e-01 5.320203932851486073e-02
3.044364614870742614e-01 5.808607111726993288e-02
3.052231190102966951e-01 6.374081331971437336e-02
3.060097765335190734e-01 7.024195958241019611e-02
3.067964340567415071e-01 7.766299417469513244e-02
3.075830915799639409e-01 8.607281336266869864e-02
3.083697491031863192e-01 9.553305326306604783e-02
3.091564066264087529e-01 1.060951617464300778e-01
3.099430641496311867e-01 1.177972959858926139e-01
3.107297216728535649e-01 1.306611458404831616e-01
3.115163791960759987e-01 1.446887720286360590e-01
3.123030367192984325e-01 1.598596235790803455e-01
3.130896942425208107e-01 1.761278529221086409e-01
3.138763517657432445e-01 1.934200908072827296e-01
3.146630092889656782e-01 2.116338411601053071e-01
3.154496668121880565e-01 2.306366303143370100e-01
3.162363243354104902e-01 2.502660481841538775e-01
3.170229818586329240e-01 2.703307925836375691e-01
3.178096393818553023e-01 2.906127760667047699e-01
3.185962969050777360e-01 3.108703382101509760e-01
3.193829544283001143e-01 3.308425401162284896e-01
3.201696119515225480e-01 3.502544694399170044e-01
3.209562694747449818e-01 3.688234361088031932e-01
3.217429269979673601e-01 3.862658819284341405e-01
3.225295845211897938e-01 4.023047769099936666e-01
3.233162420444122276e-01 4.166772428654015314e-01
3.241028995676346058e-01 4.291421101703039032e-01
3.248895570908570396e-01 4.394870988011416735e-01
3.256762146140794734e-01 4.475353173888789726e-01
3.264628721373018516e-01 4.531507938137202540e-01
3.272495296605242854e-01 4.562427718590036374e-01
3.280361871837467191e-01 4.567685741119069665e-01
3.288228447069690974e-01 4.547348763860445953e-01
3.296095022301915312e-01 4.501973202083848768e-01
3.303961597534139649e-01 4.432584596917907849e-01
3.311828172766363432e-01 4.340641308633694795e-01
3.319694747998587769e-01 4.227983842878086929e-01
3.327561323230811552e-01 4.096772190886588394e-01
3.335427898463035890e-01 3.949413844083748959e-01
3.343294473695260227e-01 3.788485787085154044e-01
3.351161048927484010e-01 3.616653813597512368e-01
3.359027624159708347e-01 3.436592812326857427e-01
3.366894199391932685e-01 3.250911205684967609e-01
3.374760774624156467e-01 3.062082774399668139e-01
3.382627349856380805e-01 2.872388299016310764e-01
3.390493925088605143e-01 2.683869134200007611e-01
3.398360500320828925e-01 2.498293908196820290e-01
3.406227075553053263e-01 2.317139103450447379e-01
3.414093650785277601e-01 2.141583256030521465e-01
3.421960226017501383e-01 1.972514069909570011e-01
3.429826801249725721e-01 1.810547034420197932e-01
3.437693376481950058e-01 1.656053618997030963e-01
3.445559951714173841e-01 1.509196843681148703e-01
3.453426526946398178e-01 1.369971705654708938e-01
3.461293102178621961e-01 1.238247978979285513e-01
3.469159677410846299e-01 1.113812765060580023e-01
3.477026252643070636e-01 9.964106413418538644e-02
3.484892827875294419e-01 8.857792452926127602e-02
3.492759403107518756e-01 7.816787402336844437e-02
3.500625978339743094e-01 6.839139048365527884e-02
3.508492553571966877e-01 5.923481364196603316e-02
3.516359128804191214e-01 5.069090490814809336e-02
3.524225704036415552e-01 4.275858686110578510e-02
3.532092279268639334e-01 3.544192622143960136e-02
3.539958854500863672e-01 2.874844961740286031e-02
3.547825429733088010e-01 2.268692260310345432e-02
3.555692004965311792e-01 1.726473968672204151e-02
3.563558580197536130e-01 1.248508180605090168e-02
3.571425155429760467e-01 8.344013704577601942e-03
3.579291730661984250e-01 4.827685359167999124e-03
3.587158305894208588e-01 1.909797801069590406e-03
3.595024881126432370e-01 -4.505319369072502411e-04
3.602891456358656708e-01 -2.310379559139374983e-03
3.610758031590881045e-01 -3.744003511144233798e-03
3.618624606823104828e-01 -4.843151872600537367e-03
3.626491182055329165e-01 -5.716642379219982750e-03
3.634357757287553503e-01 -6.489209576606813634e-03
3.642224332519777286e-01 -7.299645338138427419e-03
3.650090907752001623e-01 -8.298281520790484755e-03
3.657957482984225961e-01 -9.643890760879347823e-03
3.665824058216449743e-01 -1.150010604416606963e-02
3.673690633448674081e-01 -1.403147866876186534e-02
3.681557208680898419e-01 -1.739929684895669126e-02
3.689423783913122201e-01 -2.175731483298204427e-02
3.697290359145346539e-01 -2.724752973759314578e-02
3.705156934377570321e-01 -3.399615149923751467e-02
3.713023509609794659e-01 -4.210989068684023451e-02
3.720890084842018997e-01 -5.167270065106022159e-02
3.728756660074242779e-01 -6.274306418568631472e-02
3.736623235306467117e-01 -7.535192148996727735e-02
3.744489810538691454e-01 -8.950129370093651282e-02
3.752356385770915237e-01 -1.051636440710274067e-01
3.760222961003139575e-01 -1.222819703951031345e-01
3.768089536235363912e-01 -1.407706176093194150e-01
3.775956111467587695e-01 -1.605167602627260992e-01
3.783822686699812032e-01 -1.813824788184316139e-01
3.791689261932036370e-01 -2.032073409477176407e-01
3.799555837164260153e-01 -2.258113749220242994e-01
3.807422412396484490e-01 -2.489983173865614186e-01
3.815288987628708828e-01 -2.725590042666364843e-01
3.823155562860932610e-01 -2.962748019069877392e-01
3.831022138093156948e-01 -3.199209557288644756e-01
3.838888713325380730e-01 -3.432697782082896332e-01
3.846755288557605068e-01 -3.660935904074195113e-01
3.854621863789829406e-01 -3.881673983668256778e-01
3.862488439022053188e-01 -4.092712641454806510e-01
3.870355014254277526e-01 -4.291924059983474038e-01
3.878221589486501863e-01 -4.477270540413134103e-01
3.886088164718725646e-01 -4.646821221054453499e-01
3.893954739950949984e-01 -4.798767633167020374e-01
3.901821315183174321e-01 -4.931438864651418452e-01
3.909687890415398104e-01 -5.043317153840289890e-01
3.917554465647622441e-01 -5.133054239119441142e-01
3.925421040879846779e-01 -5.199489124216285507e-01
3.933287616112070562e-01 -5.241667034633573641e-01
3.941154191344294899e-01 -5.258859621858058553e-01
3.949020766576519237e-01 -5.250585485336581870e-01
3.956887341808743019e-01 -5.216630426253775488e-01
3.964753917040967357e-01 -5.157065861180645250e-01
3.972620492273191140e-01 -5.072264139447122400e-01
3.980487067505415477e-01 -4.962909127518121410e-01
3.988353642737639815e-01 -4.830000537319252274e-01
3.996220217969863597e-01 -4.674850558472892770e-01
4.004086793202087935e-01 -4.499071536129679583e-01
4.011953368434312273e-01 -4.304554099687359914e-01
4.019819943666536055e-01 -4.093435251185434387e-01
4.027686518898760393e-01 -3.868056844063016975e-01
4.035553094130984730e-01 -3.630915235758359616e-01
4.043419669363208513e-01 -3.384603615733540183e-01
4.051286244595432851e-01 -3.131748969395489191e-01
4.059152819827657188e-01 -2.874946111834884022e-01
4.067019395059880971e-01 -2.616691715027216203e-01
4.074885970292105308e-01 -2.359321026297794832e-01
4.082752545524329646e-01 -2.104950495740844918e-01
4.090619120756553428e-01 -1.855428872837752152e-01
4.098485695988777766e-01 -1.612299424194273412e-01
4.106352271221001549e-01 -1.376774969946047422e-01
4.114218846453225886e-01 -1.149727135533503697e-01
4.122085421685450224e-01 -9.316904393400937678e-02
4.129951996917674006e-01 -7.228808011136056422e-02
4.137818572149898344e-01 -5.232277358494064057e-02
4.145685147382122682e-01 -3.324182371759110133e-02
4.153551722614346464e-01 -1.499502309992373217e-02
4.161418297846570802e-01 2.480754160538278796e-03
4.169284873078795139e-01 1.925521263144469586e-02
4.177151448311018922e-01 3.539830417144207431e-02
4.185018023543243260e-01 5.097422608383905818e-02
4.192884598775467597e-01 6.603607212093143275e-02
4.200751174007691380e-01 8.062139296940951105e-02
4.208617749239915717e-01 9.474889274368036851e-02
4.216484324472140055e-01 1.084164067836241863e-01
4.224350899704363838e-01 1.216002419886781372e-01
4.232217474936588175e-01 1.342558708590704253e-01
4.240084050168811958e-01 1.463199143775999467e-01
4.247950625401036295e-01 1.577132618357615090e-01
4.255817200633260633e-01 1.683451263290862698e-01
4.263683775865484415e-01 1.781177948727405980e-01
4.271550351097708753e-01 1.869317945027293426e-01
4.279416926329933091e-01 1.946911739120664731e-01
4.287283501562156873e-01 2.013086303211617523e-01
4.295150076794381211e-01 2.067102030551124514e-01
4.303016652026605549e-01 2.108393203940219784e-01
4.310883227258829331e-01 2.136599830943692879e-01
4.318749802491053669e-01 2.151589874321366835e-01
4.326616377723278006e-01 2.153470886309543086e-01
4.334482952955501789e-01 2.142591059832030798e-01
4.342349528187726126e-01 2.119530038841022090e-01
4.350216103419950464e-01 2.085080439223410131e-01
4.358082678652174247e-01 2.040221576163927519e-01
4.365949253884398584e-01 1.986086777752844590e-01
4.373815829116622367e-01 1.923926564676572415e-01
4.381682404348846704e-01 1.855069352730092103e-01
4.389548979581071042e-01 1.780881819973811897e-01
4.397415554813294825e-01 1.702730545930744022e-01
4.405282130045519162e-01 1.621946689169917466e-01
4.413148705277743500e-01 1.539794989353449051e-01
4.421015280509967282e-01 1.457447780655765079e-01
4.428881855742191620e-01 1.375964885014229200e-01
4.436748430974415958e-01 1.296279486574514195e-01
4.444615006206639740e-01 1.219189960905293635e-01
4.452481581438864078e-01 1.145357144850136510e-01
4.460348156671088415e-01 1.075306478783457642e-01
4.468214731903312198e-01 1.009434371805739694e-01
4.476081307135536536e-01 9.480176741178936162e-02
4.483947882367760318e-01 8.912254264756636069e-02
4.491814457599984656e-01 8.391319713392575430e-02
4.499681032832208993e-01 7.917306291232284465e-02
4.507547608064432776e-01 7.489471380673218270e-02
4.515414183296657114e-01 7.106522462846665000e-02
4.523280758528881451e-01 6.766732068076808382e-02
4.531147333761105234e-01 6.468037047468810918e-02
4.539013908993329571e-01 6.208122177444685974e-02
4.546880484225553909e-01 5.984487316894870901e-02
4.554747059457777691e-01 5.794500742634123291e-02
4.562613634690002029e-01 5.635439602210934318e-02
4.570480209922226367e-01 5.504519037449906449e-02
4.578346785154450149e-01 5.398915444362972771e-02
4.586213360386674487e-01 5.315784294607506233e-02
4.594079935618898825e-01 5.252276168394720557e-02
4.601946510851122607e-01 5.205550899179511859e-02
4.609813086083346945e-01 5.172795422443665636e-02
4.617679661315570727e-01 5.151242288038537787e-02
4.625546236547795065e-01 5.138192094436178081e-02
4.633412811780019402e-01 5.131037440743280165e-02
4.641279387012243185e-01 5.127290494350300598e-02
4.649145962244467523e-01 5.124611634433562379e-02
4.657012537476691860e-01 5.120838817499273610e-02
4.664879112708915643e-01 5.114017005355320222e-02
4.672745687941139980e-01 5.102425900758000843e-02
4.680612263173364318e-01 5.084605365519290210e-02
4.688478838405588101e-01 5.059377341954451879e-02
4.696345413637812438e-01 5.025864268596813567e-02