0.000000000000000000e+00 2.705888926480648493e-02
7.866575232224141392e-04 2.875133730023149425e-02
1.573315046444828278e-03 2.875133730023149425e-02
2.359972569667242309e-03 2.875133730023149425e-02
3.146630092889656557e-03 2.875133730023149425e-02
3.933287616112070804e-03 2.875133730023149425e-02
4.719945139334484618e-03 2.875133730023149425e-02
5.506602662556899300e-03 2.875133730023149425e-02
6.293260185779313114e-03 2.875133730023149425e-02
7.079917709001726928e-03 2.875133730023149425e-02
7.866575232224141609e-03 2.875133730023149425e-02
8.653232755446556290e-03 2.875133730023149425e-02
9.439890278668969237e-03 2.875133730023149425e-02
1.022654780189138392e-02 2.875133730023149425e-02
1.101320532511379860e-02 2.875133730023149425e-02
1.179986284833621155e-02 2.875133730023149425e-02
1.258652037155862623e-02 2.875133730023149425e-02
1.337317789478104091e-02 2.875133730023149425e-02
1.415983541800345386e-02 2.875133730023149425e-02
1.494649294122586854e-02 2.875133730023149425e-02
1.573315046444828322e-02 2.875133730023149425e-02
1.651980798767069616e-02 2.875133730023149425e-02
1.730646551089311258e-02 2.875133730023149425e-02
1.809312303411552553e-02 2.875133730023149425e-02
1.887978055733793847e-02 2.875133730023149425e-02
1.966643808056035489e-02 2.875133730023149425e-02
2.045309560378276784e-02 2.875133730023149425e-02
2.123975312700518078e-02 2.875133730023149425e-02
2.202641065022759720e-02 2.875133730023149425e-02
2.281306817345001015e-02 2.875133730023149425e-02
2.359972569667242309e-02 2.875133730023149425e-02
2.438638321989483951e-02 2.875133730023149425e-02
2.517304074311725245e-02 2.875133730023149425e-02
2.595969826633966540e-02 2.875133730023149425e-02
2.674635578956208182e-02 2.875133730023149425e-02
2.753301331278449476e-02 2.875133730023149425e-02
2.831967083600690771e-02 2.875133730023149425e-02
2.910632835922932413e-02 2.875133730023149425e-02
2.989298588245173707e-02 2.875133730023149425e-02
3.067964340567415002e-02 2.875133730023149425e-02
3.146630092889656644e-02 2.875133730023149425e-02
3.225295845211897938e-02 2.875133730023149425e-02
3.303961597534139233e-02 2.875133730023149425e-02
3.382627349856380528e-02 2.875133730023149425e-02
3.461293102178622516e-02 2.875133730023149425e-02
3.539958854500863811e-02 2.875133730023149425e-02
3.618624606823105105e-02 2.875133730023149425e-02
3.697290359145346400e-02 2.875133730023149425e-02
3.775956111467587695e-02 2.875133730023149425e-02
3.854621863789828989e-02 2.875133730023149425e-02
3.933287616112070978e-02 2.875133730023149425e-02
4.011953368434312273e-02 2.875133730023149425e-02
4.090619120756553567e-02 2.875133730023149425e-02
4.169284873078794862e-02 2.875133730023149425e-02
4.247950625401036157e-02 2.875133730023149425e-02
4.326616377723277451e-02 2.875133730023149425e-02
4.405282130045519440e-02 2.875133730023149425e-02
4.483947882367760734e-02 2.875133730023149425e-02
4.562613634690002029e-02 2.875133730023149425e-02
4.641279387012243324e-02 2.875133730023149425e-02
4.719945139334484618e-02 2.875133730023149425e-02
4.798610891656725913e-02 2.875133730023149425e-02
4.877276643978967902e-02 2.875133730023149425e-02
4.955942396301209196e-02 2.875133730023149425e-02
5.034608148623450491e-02 2.875133730023149425e-02
5.113273900945691786e-02 2.875133730023149425e-02
5.191939653267933080e-02 2.875133730023149425e-02
5.270605405590175069e-02 2.875133730023149425e-02
5.349271157912416363e-02 2.875133730023149425e-02
5.427936910234657658e-02 2.875133730023149425e-02
5.506602662556898953e-02 2.875133730023149425e-02
5.585268414879140247e-02 2.875133730023149425e-02
5.663934167201381542e-02 2.875133730023149425e-02
5.742599919523623531e-02 2.875133730023149425e-02
5.821265671845864825e-02 2.875133730023149425e-02
5.899931424168106120e-02 2.875133730023149425e-02
5.978597176490347415e-02 2.875133730023149425e-02
6.057262928812588709e-02 2.875133730023149425e-02
6.135928681134830004e-02 2.875133730023149425e-02
6.214594433457071992e-02 2.875133730023149425e-02
6.293260185779313287e-02 2.875133730023149425e-02
6.371925938101553888e-02 2.875133730023149425e-02
6.450591690423795876e-02 2.875133730023149425e-02
6.529257442746037865e-02 2.875133730023149425e-02
6.607923195068278466e-02 2.875133730023149425e-02
6.686588947390520454e-02 2.875133730023149425e-02
6.765254699712761055e-02 2.875133730023149425e-02
6.843920452035003044e-02 2.875133730023149425e-02
6.922586204357245032e-02 2.875133730023149425e-02
7.001251956679485633e-02 2.875133730023149425e-02
7.079917709001727621e-02 2.875133730023149425e-02
7.158583461323968222e-02 2.875133730023149425e-02
7.237249213646210211e-02 2.875133730023149425e-02
7.315914965968450812e-02 2.875133730023149425e-02
7.394580718290692800e-02 2.875133730023149425e-02
7.473246470612934789e-02 2.875133730023149425e-02
7.551912222935175389e-02 2.875133730023149425e-02
7.630577975257417378e-02 2.875133730023149425e-02
7.709243727579657979e-02 2.875133730023149425e-02
7.787909479901899967e-02 2.875133730023149425e-02
7.866575232224141956e-02 2.875133730023149425e-02
7.945240984546382557e-02 2.875133730023149425e-02
8.023906736868624545e-02 2.875133730023149425e-02
8.102572489190865146e-02 2.875133730023149425e-02
8.181238241513107134e-02 2.875133730023149425e-02
8.259903993835349123e-02 2.875133730023149425e-02
8.338569746157589724e-02 2.875133730023149425e-02
8.417235498479831712e-02 2.875133730023149425e-02
8.495901250802072313e-02 2.875133730023149425e-02
8.574567003124314302e-02 2.875133730023149425e-02
8.653232755446554902e-02 2.875133730023149425e-02
8.731898507768796891e-02 2.875133730023149425e-02
8.810564260091038880e-02 2.875133730023149425e-02
8.889230012413279480e-02 2.875133730023149425e-02
8.967895764735521469e-02 2.875133730023149425e-02
9.046561517057762070e-02 2.875133730023149425e-02
9.125227269380004058e-02 2.875133730023149425e-02
9.203893021702246047e-02 2.875133730023149425e-02
9.282558774024486647e-02 2.875133730023149425e-02
9.361224526346728636e-02 2.875133730023149425e-02
9.439890278668969237e-02 2.875133730023149425e-02
9.518556030991211225e-02 2.875133730023149425e-02
9.597221783313451826e-02 2.875133730023149425e-02
9.675887535635693815e-02 2.875133730023149425e-02
9.754553287957935803e-02 2.875133730023149425e-02
9.833219040280176404e-02 2.875133730023149425e-02
9.911884792602418393e-02 2.875133730023149425e-02
9.990550544924658993e-02 2.875133730023149425e-02
1.006921629724690098e-01 2.875133730023149425e-02
1.014788204956914297e-01 2.875133730023149425e-02
1.022654780189138357e-01 2.875133730023149425e-02
1.030521355421362556e-01 2.875133730023149425e-02
1.038387930653586616e-01 2.875133730023149425e-02
1.046254505885810815e-01 2.875133730023149425e-02
1.054121081118035014e-01 2.875133730023149425e-02
1.061987656350259074e-01 2.875133730023149425e-02
1.069854231582483273e-01 2.875133730023149425e-02
1.077720806814707333e-01 2.875133730023149425e-02
1.085587382046931532e-01 2.875133730023149425e-02
1.093453957279155592e-01 2.875133730023149425e-02
1.101320532511379791e-01 2.875133730023149425e-02
1.109187107743603989e-01 2.875133730023149425e-02
1.117053682975828049e-01 2.875133730023149425e-02
1.124920258208052248e-01 2.875133730023149425e-02
1.132786833440276308e-01 2.875133730023149425e-02
1.140653408672500507e-01 2.875133730023149425e-02
1.148519983904724706e-01 2.875133730023149425e-02
1.156386559136948766e-01 2.875133730023149425e-02
1.164253134369172965e-01 2.875133730023149425e-02
1.172119709601397025e-01 2.875133730023149425e-02
1.179986284833621224e-01 2.875133730023149425e-02
1.187852860065845284e-01 2.875133730023149425e-02
1.195719435298069483e-01 2.875133730023149425e-02
1.203586010530293682e-01 2.875133730023149425e-02
1.211452585762517742e-01 2.875133730023149425e-02
1.219319160994741941e-01 2.875133730023149425e-02
1.227185736226966001e-01 2.875133730023149425e-02
1.235052311459190200e-01 2.875133730023149425e-02
1.242918886691414398e-01 2.875133730023149425e-02
1.250785461923638597e-01 2.875133730023149425e-02
1.258652037155862657e-01 2.875133730023149425e-02
1.266518612388086718e-01 2.875133730023149425e-02
1.274385187620310778e-01 2.875133730023149425e-02
1.282251762852535115e-01 2.875133730023149425e-02
1.290118338084759175e-01 2.875133730023149425e-02
1.297984913316983235e-01 2.875133730023149425e-02
1.305851488549207573e-01 2.875133730023149425e-02
1.313718063781431633e-01 2.875133730023149425e-02
1.321584639013655693e-01 2.875133730023149425e-02
1.329451214245880031e-01 2.875133730023149425e-02
1.337317789478104091e-01 2.875133730023149425e-02
1.345184364710328151e-01 2.875133730023149425e-02
1.353050939942552211e-01 2.875133730023149425e-02
1.360917515174776549e-01 2.875133730023149425e-02
1.368784090407000609e-01 2.875133730023149425e-02
1.376650665639224669e-01 2.875133730023149425e-02
1.384517240871449006e-01 2.875133730023149425e-02
1.392383816103673067e-01 2.875133730023149425e-02
1.400250391335897127e-01 2.875133730023149425e-02
1.408116966568121187e-01 2.875133730023149425e-02
1.415983541800345524e-01 2.875133730023149425e-02
1.423850117032569584e-01 2.875133730023149425e-02
1.431716692264793644e-01 2.875133730023149425e-02
1.439583267497017982e-01 2.875133730023149425e-02
1.447449842729242042e-01 2.875133730023149425e-02
1.455316417961466102e-01 2.875133730023149425e-02
1.463182993193690162e-01 2.875133730023149425e-02
1.471049568425914500e-01 2.875133730023149425e-02
1.478916143658138560e-01 2.875133730023149425e-02
1.486782718890362620e-01 2.875133730023149425e-02
1.494649294122586958e-01 2.875133730023149425e-02
1.502515869354811018e-01 2.875133730023149425e-02
1.510382444587035078e-01 2.875133730023149425e-02
1.518249019819259416e-01 2.875133730023149425e-02
1.526115595051483476e-01 2.875133730023149425e-02
1.533982170283707536e-01 2.875133730023149425e-02
1.541848745515931596e-01 2.875133730023149425e-02
1.549715320748155933e-01 2.875133730023149425e-02
1.557581895980379993e-01 2.875133730023149425e-02
1.565448471212604054e-01 2.875133730023149425e-02
1.573315046444828391e-01 2.875133730023149425e-02
1.581181621677052451e-01 2.875133730023149425e-02
1.589048196909276511e-01 2.875133730023149425e-02
1.596914772141500571e-01 2.875133730023149425e-02
1.604781347373724909e-01 2.875133730023149425e-02
1.612647922605948969e-01 2.875133730023149425e-02
1.620514497838173029e-01 2.875133730023149425e-02
1.628381073070397367e-01 2.875133730023149425e-02
1.636247648302621427e-01 2.875133730023149425e-02
1.644114223534845487e-01 2.875133730023149425e-02
1.651980798767069825e-01 2.875133730023149425e-02
1.659847373999293885e-01 2.875133730023149425e-02
1.667713949231517945e-01 2.875133730023149425e-02
1.675580524463742005e-01 2.875133730023149425e-02
1.683447099695966342e-01 2.875133730023149425e-02
1.691313674928190403e-01 2.875133730023149425e-02
1.699180250160414463e-01 2.875133730023149425e-02
1.707046825392638800e-01 2.875133730023149425e-02
1.714913400624862860e-01 2.875133730023149425e-02
1.722779975857086920e-01 2.875133730023149425e-02
1.730646551089310980e-01 2.875133730023149425e-02
1.738513126321535318e-01 2.875133730023149425e-02
1.746379701553759378e-01 2.875133730023149425e-02
1.754246276785983438e-01 2.875133730023149425e-02
1.762112852018207776e-01 2.875133730023149425e-02
1.769979427250431836e-01 2.875133730023149425e-02
1.777846002482655896e-01 2.875133730023149425e-02
1.785712577714880234e-01 2.875133730023149425e-02
1.793579152947104294e-01 2.875133730023149425e-02
1.801445728179328354e-01 2.875133730023149425e-02
1.809312303411552414e-01 2.875133730023149425e-02
1.817178878643776752e-01 2.875133730023149425e-02
1.825045453876000812e-01 2.875133730023149425e-02
1.832912029108224872e-01 2.875133730023149425e-02
1.840778604340449209e-01 2.875133730023149425e-02
1.848645179572673269e-01 2.875133730023149425e-02
1.856511754804897329e-01 2.875133730023149425e-02
1.864378330037121390e-01 2.875133730023149425e-02
1.872244905269345727e-01 2.875133730023149425e-02
1.880111480501569787e-01 2.875133730023149425e-02
1.887978055733793847e-01 2.875133730023149425e-02
1.895844630966018185e-01 2.875133730023149425e-02
1.903711206198242245e-01 2.875133730023149425e-02
1.911577781430466305e-01 2.875133730023149425e-02
1.919444356662690365e-01 2.875133730023149425e-02
1.927310931894914703e-01 2.875133730023149425e-02
1.935177507127138763e-01 2.875133730023149425e-02
1.943044082359362823e-01 2.875133730023149425e-02
1.950910657591587161e-01 2.875133730023149425e-02
1.958777232823811221e-01 2.875133730023149425e-02
1.966643808056035281e-01 2.875133730023149425e-02
1.974510383288259618e-01 2.875133730023149425e-02
1.982376958520483679e-01 2.875133730023149425e-02
1.990243533752707739e-01 2.875133730023149425e-02
1.998110108984931799e-01 2.875133730023149425e-02
2.005976684217156136e-01 2.875133730023149425e-02
2.013843259449380196e-01 2.875133730023149425e-02
2.021709834681604256e-01 2.875133730023149425e-02
2.029576409913828594e-01 2.875133730023149425e-02
2.037442985146052654e-01 2.875133730023149425e-02
2.045309560378276714e-01 2.875133730023149425e-02
2.053176135610500774e-01 2.875133730023149425e-02
2.061042710842725112e-01 2.875133730023149425e-02
2.068909286074949172e-01 2.875133730023149425e-02
2.076775861307173232e-01 2.875133730023149425e-02
2.084642436539397570e-01 2.875133730023149425e-02
2.092509011771621630e-01 2.875133730023149425e-02
2.100375587003845690e-01 2.875133730023149425e-02
2.108242162236070028e-01 2.875133730023149425e-02
2.116108737468294088e-01 2.875133730023149425e-02
2.123975312700518148e-01 2.875133730023149425e-02
2.131841887932742208e-01 2.875133730023149425e-02
2.139708463164966545e-01 2.875133730023149425e-02
2.147575038397190605e-01 2.875133730023149425e-02
2.155441613629414666e-01 2.875133730023149425e-02
2.163308188861639003e-01 2.875133730023149425e-02
2.171174764093863063e-01 2.875133730023149425e-02
2.179041339326087123e-01 2.875133730023149425e-02
2.186907914558311183e-01 2.875133730023149425e-02
2.194774489790535521e-01 2.875133730023149425e-02
2.202641065022759581e-01 2.875133730023149425e-02
2.210507640254983641e-01 2.875133730023149425e-02
2.218374215487207979e-01 2.875133730023149425e-02
2.226240790719432039e-01 2.875133730023149425e-02
2.234107365951656099e-01 2.875133730023149425e-02
2.241973941183880159e-01 2.875133730023149425e-02
2.249840516416104497e-01 2.875133730023149425e-02
2.257707091648328557e-01 2.875133730023149425e-02
2.265573666880552617e-01 2.875133730023149425e-02
2.273440242112776954e-01 2.875133730023149425e-02
2.281306817345001015e-01 2.875133730023149425e-02
2.289173392577225075e-01 2.875133730023149425e-02
2.297039967809449412e-01 2.875133730023149425e-02
2.304906543041673472e-01 2.875133730023149425e-02
2.312773118273897532e-01 2.875133730023149425e-02
2.320639693506121592e-01 2.875133730023149425e-02
2.328506268738345930e-01 2.875133730023149425e-02
2.336372843970569990e-01 2.875133730023149425e-02
2.344239419202794050e-01 2.875133730023149425e-02
2.352105994435018388e-01 2.875133730023149425e-02
2.359972569667242448e-01 2.875133730023149425e-02
2.367839144899466508e-01 2.875133730023149425e-02
2.375705720131690568e-01 2.875133730023149425e-02
2.383572295363914906e-01 2.875133730023149425e-02
2.391438870596138966e-01 2.875133730023149425e-02
2.399305445828363026e-01 2.875133730023149425e-02
2.407172021060587364e-01 2.875133730023149425e-02
2.415038596292811424e-01 2.875133730023149425e-02
2.422905171525035484e-01 2.875133730023149425e-02
2.430771746757259821e-01 2.875133730023149425e-02
2.438638321989483881e-01 2.875133730023149425e-02
2.446504897221707941e-01 2.875133730023149425e-02
2.454371472453932002e-01 2.875133730023149425e-02
2.462238047686156339e-01 2.875133730023149425e-02
2.470104622918380399e-01 2.875133730023149425e-02
2.477971198150604459e-01 2.875133730023171630e-02
2.485837773382828797e-01 2.875133730023171630e-02
2.493704348615052857e-01 2.875133730023216039e-02
2.501570923847277195e-01 2.875133730023304857e-02
2.509437499079500977e-01 2.875133730023549106e-02
2.517304074311725315e-01 2.875133730023926582e-02
2.525170649543949652e-01 2.875133730025303258e-02
2.533037224776173435e-01 2.875133730027257251e-02
2.540903800008397773e-01 2.875133730033829771e-02
2.548770375240621555e-01 2.875133730043133440e-02
2.556636950472845893e-01 2.875133730071977034e-02
2.564503525705070230e-01 2.875133730112611197e-02
2.572370100937294013e-01 2.875133730229029183e-02
2.580236676169518351e-01 2.875133730392898102e-02
2.588103251401742688e-01 2.875133730825529810e-02
2.595969826633966471e-01 2.875133731435508544e-02
2.603836401866190808e-01 2.875133732918722096e-02
2.611702977098415146e-01 2.875133735018309267e-02
2.619569552330638929e-01 2.875133739720125980e-02
2.627436127562863266e-01 2.875133746418701008e-02
2.635302702795087604e-01 2.875133760252346349e-02
2.643169278027311386e-01 2.875133780128691363e-02
2.651035853259535724e-01 2.875133818108932537e-02
2.658902428491760062e-01 2.875133873222113223e-02
2.666769003723983844e-01 2.875133971253029941e-02
2.674635578956208182e-01 2.875134114957811349e-02
2.682502154188431964e-01 2.875134355099717709e-02
2.690368729420656302e-01 2.875134710230864421e-02
2.698235304652880640e-01 2.875135274564821763e-02
2.706101879885104422e-01 2.875136113775500490e-02
2.713968455117328760e-01 2.875137399225002888e-02
2.721835030349553097e-01 2.875139312486818532e-02
2.729701605581776880e-01 2.875142172900946314e-02
2.737568180814001217e-01 2.875146412617080038e-02
2.745434756046225555e-01 2.875152655643087307e-02
2.753301331278449338e-01 2.875161832461037292e-02
2.761167906510673675e-01 2.875175203432789317e-02
2.769034481742898013e-01 2.875194647548751092e-02
2.776901056975121795e-01 2.875222710889691058e-02
2.784767632207346133e-01 2.875263050219967198e-02
2.792634207439570471e-01 2.875320685620130767e-02
2.800500782671794253e-01 2.875402583930997125e-02
2.808367357904018591e-01 2.875518328649340205e-02
2.816233933136242373e-01 2.875680960035098543e-02
2.824100508368466711e-01 2.875908230377599573e-02
2.831967083600691049e-01 2.876224034038954436e-02
2.839833658832914831e-01 2.876660408647113698e-02
2.847700234065139169e-01 2.877260038429851896e-02
2.855566809297363506e-01 2.878079339158223782e-02
2.863433384529587289e-01 2.879192529857532712e-02
2.871299959761811627e-01 2.880696458881426558e-02
2.879166534994035964e-01 2.882716768461879298e-02
2.887033110226259747e-01 2.885415325972484624e-02
2.894899685458484084e-01 2.888999241827194808e-02
2.902766260690708422e-01 2.893731715689074058e-02
2.910632835922932204e-01 2.899944976223323145e-02
2.918499411155156542e-01 2.908055209922233431e-02
2.926365986387380325e-01 2.918580492275713034e-02
2.934232561619604662e-01 2.932160385611037867e-02
2.942099136851829000e-01 2.949579497850507437e-02
2.949965712084052782e-01 2.971792047250554347e-02
2.957832287316277120e-01 2.999950960774677711e-02
2.965698862548501458e-01 3.035436909550415230e-02
2.973565437780725240e-01 3.079891665087175490e-02
2.981432013012949578e-01 3.135250025664637619e-02
2.989298588245173915e-01 3.203774096065092891e-02
2.997165163477397698e-01 3.288085291078157724e-02
3.005031738709622036e-01 3.391193783901780279e-02
3.012898313941846373e-01 3.516525661087599453e-02
3.020764889174070156e-01 3.667940318610174444e-02
3.028631464406294493e-01 3.849744438135416225e-02
3.036498039638518831e-01 4.066689873523210430e-02
3.044364614870742614e-01 4.323963177561451765e-02
3.052231190102966951e-01 4.627156177804514492e-02
3.060097765335190734e-01 4.982220061657427479e-02
3.067964340567415071e-01 5.395399972182213233e-02
3.075830915799639409e-01 5.873146551449082153e-02
3.083697491031863192e-01 6.422006925441192671e-02
3.091564066264087529e-01 7.048491855029537234e-02
3.099430641496311867e-01 7.758921276724661809e-02
3.107297216728535649e-01 8.559250637976578702e-02
3.115163791960759987e-01 9.454878921032960903e-02
3.123030367192984325e-01 1.045044508816233009e-01
3.130896942425208107e-01 1.154961625858421659e-01
3.138763517657432445e-01 1.275487524572262998e-01
3.146630092889656782e-01 1.406731419862627952e-01
3.154496668121880565e-01 1.548644307013258281e-01
3.162363243354104902e-01 1.701002030963454370e-01
3.170229818586329240e-01 1.863391529272242497e-01
3.178096393818553023e-01 2.035201028823998559e-01
3.185962969050777360e-01 2.215614777655012801e-01
3.193829544283001143e-01 2.403613204339904996e-01
3.201696119515225480e-01 2.597978547297037366e-01
3.209562694747449818e-01 2.797306487375890161e-01
3.217429269979673601e-01 3.000023616844926799e-01
3.225295845211897938e-01 3.204410474167924683e-01
3.233162420444122276e-01 3.408629733098771375e-01
3.241028995676346058e-01 3.610758720867239813e-01
3.248895570908570396e-01 3.808825339886232619e-01
3.256762146140794734e-01 4.000846246888796198e-01
3.264628721373018516e-01 4.184866101031678998e-01
3.272495296605242854e-01 4.358996459953856650e-01
3.280361871837467191e-01 4.521453076226706891e-01
3.288228447069690974e-01 4.670590399441307827e-01
3.296095022301915312e-01 4.804931925751751987e-01
3.303961597534139649e-01 4.923195737562784391e-01
3.311828172766363432e-01 5.024314228790631720e-01
3.319694747998587769e-01 5.107447639336821776e-01
3.327561323230811552e-01 5.171991124310002519e-01
3.335427898463035890e-01 5.217575355197765496e-01
3.343294473695260227e-01 5.244060846727145453e-01
3.351161048927484010e-01 5.251526506096506619e-01
3.359027624159708347e-01 5.240252987858036171e-01
3.366894199391932685e-01 5.210701524623706504e-01
3.374760774624156467e-01 5.163489101284963745e-01
3.382627349856380805e-01 5.099360755307611459e-01
3.390493925088605143e-01 5.019159797492149799e-01
3.398360500320828925e-01 4.923796765638923656e-01
3.406227075553053263e-01 4.814217899107766652e-01
3.414093650785277601e-01 4.691373732273407260e-01
3.421960226017501383e-01 4.556188544399151219e-01
3.429826801249725721e-01 4.409531312847572160e-01
3.437693376481950058e-01 4.252188683696334071e-01
3.445559951714173841e-01 4.084840721677616138e-01
3.453426526946398178e-01 3.908040080374350911e-01
3.461293102178621961e-01 3.722195269313111066e-01
3.469159677410846299e-01 3.527558796788814455e-01
3.477026252643070636e-01 3.324220969603244313e-01
3.484892827875294419e-01 3.112110009623383355e-01
3.492759403107518756e-01 2.890999202604023210e-01
3.500625978339743094e-01 2.660521611456125868e-01
3.508492553571966877e-01 2.420192666507092749e-01
3.516359128804191214e-01 2.169440617206463973e-01
3.524225704036415552e-01 1.907644700374977464e-01
3.532092279268639334e-01 1.634180159983473768e-01
3.539958854500863672e-01 1.348469175300519574e-01
3.547825429733088010e-01 1.050036034729451284e-01
3.555692004965311792e-01 7.385647392451066828e-02
3.563558580197536130e-01 4.139565698328007137e-02
3.571425155429760467e-01 7.638520997345743524e-03
3.579291730661984250e-01 -2.736533771018023753e-02
3.587158305894208588e-01 -6.352990313680861867e-02
3.595024881126432370e-01 -1.007296030723506819e-01
3.602891456358656708e-01 -1.387974537661071928e-01
3.610758031590881045e-01 -1.775246789016068361e-01
3.618624606823104828e-01 -2.166619184501114015e-01
3.626491182055329165e-01 -2.559220833653925720e-01
3.634357757287553503e-01 -2.949848442104024970e-01
3.642224332519777286e-01 -3.335026325687456827e-01
3.650090907752001623e-01 -3.711080050219883741e-01
3.657957482984225961e-01 -4.074220907311454365e-01
3.665824058216449743e-01 -4.420638324699225352e-01
3.673690633448674081e-01 -4.746596626559512755e-01
3.681557208680898419e-01 -5.048532276080490711e-01
3.689423783913122201e-01 -5.323147784200588095e-01
3.697290359145346539e-01 -5.567498659201981503e-01
3.705156934377570321e-01 -5.779069803201235533e-01
3.713023509609794659e-01 -5.955838621847625580e-01
3.720890084842018997e-01 -6.096322592826678433e-01
3.728756660074242779e-01 -6.199609793131336533e-01
3.736623235306467117e-01 -6.265371533400938553e-01
3.744489810538691454e-01 -6.293857515837965044e-01
3.752356385770915237e-01 -6.285874145907566213e-01
3.760222961003139575e-01 -6.242747619487305499e-01
3.768089536235363912e-01 -6.166273884425224061e-01
3.775956111467587695e-01 -6.058658190357271156e-01
3.783822686699812032e-01 -5.922446783591666097e-01
3.791689261932036370e-01 -5.760453806960745826e-01
3.799555837164260153e-01 -5.575686425239109179e-01
3.807422412396484490e-01 -5.371270769925196031e-01
3.815288987628708828e-01 -5.150381207502854330e-01
3.823155562860932610e-01 -4.916174969781778037e-01
3.831022138093156948e-01 -4.671734000578222634e-01
3.838888713325380730e-01 -4.420014973873895858e-01
3.846755288557605068e-01 -4.163808380791674812e-01
3.854621863789829406e-01 -3.905707018370340178e-01
3.862488439022053188e-01 -3.648083738966065859e-01
3.870355014254277526e-01 -3.393077889843580941e-01
3.878221589486501863e-01 -3.142589973595315556e-01
3.886088164718725646e-01 -2.898283302778293935e-01
3.893954739950949984e-01 -2.661591668941403199e-01
3.901821315183174321e-01 -2.433731649138146658e-01
3.909687890415398104e-01 -2.215718508890218708e-01
3.917554465647622441e-01 -2.008384265111332612e-01
3.925421040879846779e-01 -1.812396677750849339e-01
3.933287616112070562e-01 -1.628278189504879236e-01
3.941154191344294899e-01 -1.456423930306314229e-01
3.949020766576519237e-01 -1.297117693295003482e-01
3.956887341808743019e-01 -1.150545432562372072e-01
3.964753917040967357e-01 -1.016805980608209703e-01
3.972620492273191140e-01 -8.959184230603811638e-02
3.980487067505415477e-01 -7.878262635797461666e-02
3.988353642737639815e-01 -6.923983743325612394e-02
3.996220217969863597e-01 -6.094273469269662069e-02
4.004086793202087935e-01 -5.386252506693056663e-02
4.011953368434312273e-01 -4.796176815192731979e-02
4.019819943666536055e-01 -4.319365841132505324e-02
4.027686518898760393e-01 -3.950129824479808871e-02
4.035553094130984730e-01 -3.681698193389315588e-02
4.043419669363208513e-01 -3.506161273696040137e-02
4.051286244595432851e-01 -3.414432886081164575e-02
4.059152819827657188e-01 -3.396238832740949842e-02
4.067019395059880971e-01 -3.440137447325364306e-02
4.074885970292105308e-01 -3.533577971951273877e-02
4.082752545524329646e-01 -3.663001508245689042e-02
4.090619120756553428e-01 -3.813982634177259801e-02
4.098485695988777766e-01 -3.971414855232857644e-02
4.106352271221001549e-01 -4.119737594918426726e-02
4.114218846453225886e-01 -4.243201696905996023e-02
4.122085421685450224e-01 -4.326167426737448363e-02
4.129951996917674006e-01 -4.353428158836725181e-02
4.137818572149898344e-01 -4.310555264553339594e-02
4.145685147382122682e-01 -4.184251167914654346e-02
4.153551722614346464e-01 -3.962701173872851257e-02
4.161418297846570802e-01 -3.635913575384530638e-02
4.169284873078795139e-01 -3.196038435635273345e-02
4.177151448311018922e-01 -2.637651075752511787e-02
4.185018023543243260e-01 -1.957988338968463804e-02
4.192884598775467597e-01 -1.157131053978877055e-02
4.200751174007691380e-01 -2.381202588745301441e-03
4.208617749239915717e-01 7.929999716093538709e-03
4.216484324472140055e-01 1.927220482377944855e-02
4.224350899704363838e-01 3.152685419181189275e-02
4.232217474936588175e-01 4.454895713944173608e-02
4.240084050168811958e-01 5.816994308196754560e-02
4.247950625401036295e-01 7.220129620215076649e-02
4.255817200633260633e-01 8.643886729127747692e-02
4.263683775865484415e-01 1.006677604288765959e-01
4.271550351097708753e-01 1.146676844584044730e-01
4.279416926329933091e-01 1.282185788922811653e-01
4.287283501562156873e-01 1.411063405377348534e-01
4.295150076794381211e-01 1.531284659937441894e-01
4.303016652026605549e-01 1.640994287579826683e-01
4.310883227258829331e-01 1.738555972707764852e-01
4.318749802491053669e-01 1.822594916090687356e-01
4.326616377723278006e-01 1.892032547972637424e-01
4.334482952955501789e-01 1.946112135489468375e-01
4.342349528187726126e-01 1.984414303428336801e-01
4.350216103419950464e-01 2.006861701221329675e-01
4.358082678652174247e-01 2.013713140901947085e-01
4.365949253884398584e-01 2.005547288771871717e-01
4.373815829116622367e-01 1.983236833991632864e-01
4.381682404348846704e-01 1.947913957148581510e-01
4.389548979581071042e-01 1.900928869929656706e-01
4.397415554813294825e-01 1.843803070371805575e-01
4.405282130045519162e-01 1.778179211488222222e-01
4.413148705277743500e-01 1.705769278328086447e-01
4.421015280509967282e-01 1.628303398375741118e-01
4.428881855742191620e-01 1.547481066131353167e-01
4.436748430974415958e-01 1.464926349222646085e-01
4.444615006206639740e-01 1.382148438734833729e-01
4.452481581438864078e-01 1.300508847199652873e-01
4.460348156671088415e-01 1.221196079289703640e-01
4.468214731903312198e-01 1.145207966334942373e-01
4.476081307135536536e-01 1.073341975461521436e-01
4.483947882367760318e-01 1.006193108635995426e-01
4.491814457599984656e-01 9.441590860859405687e-02
4.499681032832208993e-01 8.874517100158874072e-02
4.507547608064432776e-01 8.361136624413156859e-02
4.515414183296657114e-01 7.900395139150417911e-02
4.523280758528881451e-01 7.489999735288566107e-02
4.531147333761105234e-01 7.126678390286733666e-02
4.539013908993329571e-01 6.806446937625398874e-02
4.546880484225553909e-01 6.524871855529235098e-02
4.554747059457777691e-01 6.277320338455893989e-02
4.562613634690002029e-01 6.059187145864619595e-02
4.570480209922226367e-01 5.866092661445176937e-02
4.578346785154450149e-01 5.694047114851263913e-02
4.586213360386674487e-01 5.539577864906020110e-02
4.594079935618898825e-01 5.399816442401039751e-02
4.601946510851122607e-01 5.272546533508171152e-02
4.609813086083346945e-01 5.156215049544488060e-02
4.617679661315570727e-01 5.049907833372624388e-02
4.625546236547795065e-01 4.953293384644408270e-02
4.633412811780019402e-01 4.866539926445589970e-02
4.641279387012243185e-01 4.790212765916312954e-02
4.649145962244467523e-01 4.725156139217845386e-02
4.657012537476691860e-01 4.672366137823047438e-02
4.664879112708915643e-01 4.632861424938172767e-02
4.672745687941139980e-01 4.607558556868540656e-02
4.680612263173364318e-01 4.597156697675752746e-02
4.688478838405588101e-01 4.602036980737245209e-02
4.696345413637812438e-01 4.622181486664156402e-02