0.000000000000000000e+00 2.938737036868865893e-02
7.866575232224141392e-04 2.875133730023149425e-02
1.573315046444828278e-03 2.875133730023149425e-02
2.359972569667242309e-03 2.875133730023149425e-02
3.146630092889656557e-03 2.875133730023149425e-02
3.933287616112070804e-03 2.875133730023149425e-02
4.719945139334484618e-03 2.875133730023149425e-02
5.506602662556899300e-03 2.875133730023149425e-02
6.293260185779313114e-03 2.875133730023149425e-02
7.079917709001726928e-03 2.875133730023149425e-02
7.866575232224141609e-03 2.875133730023149425e-02
8.653232755446556290e-03 2.875133730023149425e-02
9.439890278668969237e-03 2.875133730023149425e-02
1.022654780189138392e-02 2.875133730023149425e-02
1.101320532511379860e-02 2.875133730023149425e-02
1.179986284833621155e-02 2.875133730023149425e-02
1.258652037155862623e-02 2.875133730023149425e-02
1.337317789478104091e-02 2.875133730023149425e-02
1.415983541800345386e-02 2.875133730023149425e-02
1.494649294122586854e-02 2.875133730023149425e-02
1.573315046444828322e-02 2.875133730023149425e-02
1.651980798767069616e-02 2.875133730023149425e-02
1.730646551089311258e-02 2.875133730023149425e-02
1.809312303411552553e-02 2.875133730023149425e-02
1.887978055733793847e-02 2.875133730023149425e-02
1.966643808056035489e-02 2.875133730023149425e-02
2.045309560378276784e-02 2.875133730023149425e-02
2.123975312700518078e-02 2.875133730023149425e-02
2.202641065022759720e-02 2.875133730023149425e-02
2.281306817345001015e-02 2.875133730023149425e-02
2.359972569667242309e-02 2.875133730023149425e-02
2.438638321989483951e-02 2.875133730023149425e-02
2.517304074311725245e-02 2.875133730023149425e-02
2.595969826633966540e-02 2.875133730023149425e-02
2.674635578956208182e-02 2.875133730023149425e-02
2.753301331278449476e-02 2.875133730023149425e-02
2.831967083600690771e-02 2.875133730023149425e-02
2.910632835922932413e-02 2.875133730023149425e-02
2.989298588245173707e-02 2.875133730023149425e-02
3.067964340567415002e-02 2.875133730023149425e-02
3.146630092889656644e-02 2.875133730023149425e-02
3.225295845211897938e-02 2.875133730023149425e-02
3.303961597534139233e-02 2.875133730023149425e-02
3.382627349856380528e-02 2.875133730023149425e-02
3.461293102178622516e-02 2.875133730023149425e-02
3.539958854500863811e-02 2.875133730023149425e-02
3.618624606823105105e-02 2.875133730023149425e-02
3.697290359145346400e-02 2.875133730023149425e-02
3.775956111467587695e-02 2.875133730023149425e-02
3.854621863789828989e-02 2.875133730023149425e-02
3.933287616112070978e-02 2.875133730023149425e-02
4.011953368434312273e-02 2.875133730023149425e-02
4.090619120756553567e-02 2.875133730023149425e-02
4.169284873078794862e-02 2.875133730023149425e-02
4.247950625401036157e-02 2.875133730023149425e-02
4.326616377723277451e-02 2.875133730023149425e-02
4.405282130045519440e-02 2.875133730023149425e-02
4.483947882367760734e-02 2.875133730023149425e-02
4.562613634690002029e-02 2.875133730023149425e-02
4.641279387012243324e-02 2.875133730023149425e-02
4.719945139334484618e-02 2.875133730023149425e-02
4.798610891656725913e-02 2.875133730023149425e-02
4.877276643978967902e-02 2.875133730023149425e-02
4.955942396301209196e-02 2.875133730023149425e-02
5.034608148623450491e-02 2.875133730023149425e-02
5.113273900945691786e-02 2.875133730023149425e-02
5.191939653267933080e-02 2.875133730023149425e-02
5.270605405590175069e-02 2.875133730023149425e-02
5.349271157912416363e-02 2.875133730023149425e-02
5.427936910234657658e-02 2.875133730023149425e-02
5.506602662556898953e-02 2.875133730023149425e-02
5.585268414879140247e-02 2.875133730023149425e-02
5.663934167201381542e-02 2.875133730023149425e-02
5.742599919523623531e-02 2.875133730023149425e-02
5.821265671845864825e-02 2.875133730023149425e-02
5.899931424168106120e-02 2.875133730023149425e-02
5.978597176490347415e-02 2.875133730023149425e-02
6.057262928812588709e-02 2.875133730023149425e-02
6.135928681134830004e-02 2.875133730023149425e-02
6.214594433457071992e-02 2.875133730023149425e-02
6.293260185779313287e-02 2.875133730023149425e-02
6.371925938101553888e-02 2.875133730023149425e-02
6.450591690423795876e-02 2.875133730023149425e-02
6.529257442746037865e-02 2.875133730023149425e-02
6.607923195068278466e-02 2.875133730023149425e-02
6.686588947390520454e-02 2.875133730023149425e-02
6.765254699712761055e-02 2.875133730023149425e-02
6.843920452035003044e-02 2.875133730023149425e-02
6.922586204357245032e-02 2.875133730023149425e-02
7.001251956679485633e-02 2.875133730023149425e-02
7.079917709001727621e-02 2.875133730023149425e-02
7.158583461323968222e-02 2.875133730023149425e-02
7.237249213646210211e-02 2.875133730023149425e-02
7.315914965968450812e-02 2.875133730023149425e-02
7.394580718290692800e-02 2.875133730023149425e-02
7.473246470612934789e-02 2.875133730023149425e-02
7.551912222935175389e-02 2.875133730023149425e-02
7.630577975257417378e-02 2.875133730023149425e-02
7.709243727579657979e-02 2.875133730023149425e-02
7.787909479901899967e-02 2.875133730023149425e-02
7.866575232224141956e-02 2.875133730023149425e-02
7.945240984546382557e-02 2.875133730023149425e-02
8.023906736868624545e-02 2.875133730023149425e-02
8.102572489190865146e-02 2.875133730023149425e-02
8.181238241513107134e-02 2.875133730023149425e-02
8.259903993835349123e-02 2.875133730023149425e-02
8.338569746157589724e-02 2.875133730023149425e-02
8.417235498479831712e-02 2.875133730023149425e-02
8.495901250802072313e-02 2.875133730023149425e-02
8.574567003124314302e-02 2.875133730023149425e-02
8.653232755446554902e-02 2.875133730023149425e-02
8.731898507768796891e-02 2.875133730023149425e-02
8.810564260091038880e-02 2.875133730023149425e-02
8.889230012413279480e-02 2.875133730023149425e-02
8.967895764735521469e-02 2.875133730023149425e-02
9.046561517057762070e-02 2.875133730023149425e-02
9.125227269380004058e-02 2.875133730023149425e-02
9.203893021702246047e-02 2.875133730023149425e-02
9.282558774024486647e-02 2.875133730023149425e-02
9.361224526346728636e-02 2.875133730023149425e-02
9.439890278668969237e-02 2.875133730023149425e-02
9.518556030991211225e-02 2.875133730023149425e-02
9.597221783313451826e-02 2.875133730023149425e-02
9.675887535635693815e-02 2.875133730023149425e-02
9.754553287957935803e-02 2.875133730023149425e-02
9.833219040280176404e-02 2.875133730023149425e-02
9.911884792602418393e-02 2.875133730023149425e-02
9.990550544924658993e-02 2.875133730023149425e-02
1.006921629724690098e-01 2.875133730023149425e-02
1.014788204956914297e-01 2.875133730023149425e-02
1.022654780189138357e-01 2.875133730023149425e-02
1.030521355421362556e-01 2.875133730023149425e-02
1.038387930653586616e-01 2.875133730023149425e-02
1.046254505885810815e-01 2.875133730023149425e-02
1.054121081118035014e-01 2.875133730023149425e-02
1.061987656350259074e-01 2.875133730023149425e-02
1.069854231582483273e-01 2.875133730023149425e-02
1.077720806814707333e-01 2.875133730023149425e-02
1.085587382046931532e-01 2.875133730023149425e-02
1.093453957279155592e-01 2.875133730023149425e-02
1.101320532511379791e-01 2.875133730023149425e-02
1.109187107743603989e-01 2.875133730023149425e-02
1.117053682975828049e-01 2.875133730023149425e-02
1.124920258208052248e-01 2.875133730023149425e-02
1.132786833440276308e-01 2.875133730023149425e-02
1.140653408672500507e-01 2.875133730023149425e-02
1.148519983904724706e-01 2.875133730023149425e-02
1.156386559136948766e-01 2.875133730023149425e-02
1.164253134369172965e-01 2.875133730023149425e-02
1.172119709601397025e-01 2.875133730023149425e-02
1.179986284833621224e-01 2.875133730023149425e-02
1.187852860065845284e-01 2.875133730023149425e-02
1.195719435298069483e-01 2.875133730023149425e-02
1.203586010530293682e-01 2.875133730023149425e-02
1.211452585762517742e-01 2.875133730023149425e-02
1.219319160994741941e-01 2.875133730023149425e-02
1.227185736226966001e-01 2.875133730023149425e-02
1.235052311459190200e-01 2.875133730023149425e-02
1.242918886691414398e-01 2.875133730023149425e-02
1.250785461923638597e-01 2.875133730023149425e-02
1.258652037155862657e-01 2.875133730023149425e-02
1.266518612388086718e-01 2.875133730023149425e-02
1.274385187620310778e-01 2.875133730023149425e-02
1.282251762852535115e-01 2.875133730023149425e-02
1.290118338084759175e-01 2.875133730023149425e-02
1.297984913316983235e-01 2.875133730023149425e-02
1.305851488549207573e-01 2.875133730023149425e-02
1.313718063781431633e-01 2.875133730023149425e-02
1.321584639013655693e-01 2.875133730023149425e-02
1.329451214245880031e-01 2.875133730023149425e-02
1.337317789478104091e-01 2.875133730023149425e-02
1.345184364710328151e-01 2.875133730023149425e-02
1.353050939942552211e-01 2.875133730023149425e-02
1.360917515174776549e-01 2.875133730023149425e-02
1.368784090407000609e-01 2.875133730023149425e-02
1.376650665639224669e-01 2.875133730023149425e-02
1.384517240871449006e-01 2.875133730023149425e-02
1.392383816103673067e-01 2.875133730023149425e-02
1.400250391335897127e-01 2.875133730023149425e-02
1.408116966568121187e-01 2.875133730023149425e-02
1.415983541800345524e-01 2.875133730023149425e-02
1.423850117032569584e-01 2.875133730023149425e-02
1.431716692264793644e-01 2.875133730023149425e-02
1.439583267497017982e-01 2.875133730023149425e-02
1.447449842729242042e-01 2.875133730023149425e-02
1.455316417961466102e-01 2.875133730023149425e-02
1.463182993193690162e-01 2.875133730023149425e-02
1.471049568425914500e-01 2.875133730023149425e-02
1.478916143658138560e-01 2.875133730023149425e-02
1.486782718890362620e-01 2.875133730023149425e-02
1.494649294122586958e-01 2.875133730023149425e-02
1.502515869354811018e-01 2.875133730023149425e-02
1.510382444587035078e-01 2.875133730023149425e-02
1.518249019819259416e-01 2.875133730023149425e-02
1.526115595051483476e-01 2.875133730023149425e-02
1.533982170283707536e-01 2.875133730023149425e-02
1.541848745515931596e-01 2.875133730023149425e-02
1.549715320748155933e-01 2.875133730023149425e-02
1.557581895980379993e-01 2.875133730023149425e-02
1.565448471212604054e-01 2.875133730023149425e-02
1.573315046444828391e-01 2.875133730023149425e-02
1.581181621677052451e-01 2.875133730023149425e-02
1.589048196909276511e-01 2.875133730023149425e-02
1.596914772141500571e-01 2.875133730023149425e-02
1.604781347373724909e-01 2.875133730023149425e-02
1.612647922605948969e-01 2.875133730023149425e-02
1.620514497838173029e-01 2.875133730023149425e-02
1.628381073070397367e-01 2.875133730023149425e-02
1.636247648302621427e-01 2.875133730023149425e-02
1.644114223534845487e-01 2.875133730023149425e-02
1.651980798767069825e-01 2.875133730023149425e-02
1.659847373999293885e-01 2.875133730023149425e-02
1.667713949231517945e-01 2.875133730023149425e-02
1.675580524463742005e-01 2.875133730023149425e-02
1.683447099695966342e-01 2.875133730023149425e-02
1.691313674928190403e-01 2.875133730023149425e-02
1.699180250160414463e-01 2.875133730023149425e-02
1.707046825392638800e-01 2.875133730023149425e-02
1.714913400624862860e-01 2.875133730023149425e-02
1.722779975857086920e-01 2.875133730023149425e-02
1.730646551089310980e-01 2.875133730023149425e-02
1.738513126321535318e-01 2.875133730023149425e-02
1.746379701553759378e-01 2.875133730023149425e-02
1.754246276785983438e-01 2.875133730023149425e-02
1.762112852018207776e-01 2.875133730023149425e-02
1.769979427250431836e-01 2.875133730023149425e-02
1.777846002482655896e-01 2.875133730023149425e-02
1.785712577714880234e-01 2.875133730023149425e-02
1.793579152947104294e-01 2.875133730023149425e-02
1.801445728179328354e-01 2.875133730023149425e-02
1.809312303411552414e-01 2.875133730023149425e-02
1.817178878643776752e-01 2.875133730023149425e-02
1.825045453876000812e-01 2.875133730023149425e-02
1.832912029108224872e-01 2.875133730023149425e-02
1.840778604340449209e-01 2.875133730023149425e-02
1.848645179572673269e-01 2.875133730023149425e-02
1.856511754804897329e-01 2.875133730023149425e-02
1.864378330037121390e-01 2.875133730023149425e-02
1.872244905269345727e-01 2.875133730023149425e-02
1.880111480501569787e-01 2.875133730023149425e-02
1.887978055733793847e-01 2.875133730023149425e-02
1.895844630966018185e-01 2.875133730023149425e-02
1.903711206198242245e-01 2.875133730023149425e-02
1.911577781430466305e-01 2.875133730023149425e-02
1.919444356662690365e-01 2.875133730023149425e-02
1.927310931894914703e-01 2.875133730023149425e-02
1.935177507127138763e-01 2.875133730023149425e-02
1.943044082359362823e-01 2.875133730023149425e-02
1.950910657591587161e-01 2.875133730023149425e-02
1.958777232823811221e-01 2.875133730023149425e-02
1.966643808056035281e-01 2.875133730023149425e-02
1.974510383288259618e-01 2.875133730023149425e-02
1.982376958520483679e-01 2.875133730023149425e-02
1.990243533752707739e-01 2.875133730023149425e-02
1.998110108984931799e-01 2.875133730023149425e-02
2.005976684217156136e-01 2.875133730023149425e-02
2.013843259449380196e-01 2.875133730023149425e-02
2.021709834681604256e-01 2.875133730023149425e-02
2.029576409913828594e-01 2.875133730023149425e-02
2.037442985146052654e-01 2.875133730023149425e-02
2.045309560378276714e-01 2.875133730023149425e-02
2.053176135610500774e-01 2.875133730023149425e-02
2.061042710842725112e-01 2.875133730023149425e-02
2.068909286074949172e-01 2.875133730023149425e-02
2.076775861307173232e-01 2.875133730023149425e-02
2.084642436539397570e-01 2.875133730023149425e-02
2.092509011771621630e-01 2.875133730023149425e-02
2.100375587003845690e-01 2.875133730023149425e-02
2.108242162236070028e-01 2.875133730023149425e-02
2.116108737468294088e-01 2.875133730023149425e-02
2.123975312700518148e-01 2.875133730023149425e-02
2.131841887932742208e-01 2.875133730023149425e-02
2.139708463164966545e-01 2.875133730023149425e-02
2.147575038397190605e-01 2.875133730023149425e-02
2.155441613629414666e-01 2.875133730023149425e-02
2.163308188861639003e-01 2.875133730023149425e-02
2.171174764093863063e-01 2.875133730023149425e-02
2.179041339326087123e-01 2.875133730023149425e-02
2.186907914558311183e-01 2.875133730023149425e-02
2.194774489790535521e-01 2.875133730023149425e-02
2.202641065022759581e-01 2.875133730023149425e-02
2.210507640254983641e-01 2.875133730023149425e-02
2.218374215487207979e-01 2.875133730023149425e-02
2.226240790719432039e-01 2.875133730023149425e-02
2.234107365951656099e-01 2.875133730023149425e-02
2.241973941183880159e-01 2.875133730023149425e-02
2.249840516416104497e-01 2.875133730023149425e-02
2.257707091648328557e-01 2.875133730023149425e-02
2.265573666880552617e-01 2.875133730023149425e-02
2.273440242112776954e-01 2.875133730023149425e-02
2.281306817345001015e-01 2.875133730023149425e-02
2.289173392577225075e-01 2.875133730023149425e-02
2.297039967809449412e-01 2.875133730023149425e-02
2.304906543041673472e-01 2.875133730023149425e-02
2.312773118273897532e-01 2.875133730023149425e-02
2.320639693506121592e-01 2.875133730023149425e-02
2.328506268738345930e-01 2.875133730023149425e-02
2.336372843970569990e-01 2.875133730023149425e-02
2.344239419202794050e-01 2.875133730023149425e-02
2.352105994435018388e-01 2.875133730023149425e-02
2.359972569667242448e-01 2.875133730023149425e-02
2.367839144899466508e-01 2.875133730023149425e-02
2.375705720131690568e-01 2.875133730023149425e-02
2.383572295363914906e-01 2.875133730023149425e-02
2.391438870596138966e-01 2.875133730023149425e-02
2.399305445828363026e-01 2.875133730023149425e-02
2.407172021060587364e-01 2.875133730023149425e-02
2.415038596292811424e-01 2.875133730023149425e-02
2.422905171525035484e-01 2.875133730023149425e-02
2.430771746757259821e-01 2.875133730023149425e-02
2.438638321989483881e-01 2.875133730023149425e-02
2.446504897221707941e-01 2.875133730023149425e-02
2.454371472453932002e-01 2.875133730023149425e-02
2.462238047686156339e-01 2.875133730023149425e-02
2.470104622918380399e-01 2.875133730023149425e-02
2.477971198150604459e-01 2.875133730023149425e-02
2.485837773382828797e-01 2.875133730023149425e-02
2.493704348615052857e-01 2.875133730023149425e-02
2.501570923847277195e-01 2.875133730023149425e-02
2.509437499079500977e-01 2.875133730023149425e-02
2.517304074311725315e-01 2.875133730023149425e-02
2.525170649543949652e-01 2.875133730023149425e-02
2.533037224776173435e-01 2.875133730023149425e-02
2.540903800008397773e-01 2.875133730023149425e-02
2.548770375240621555e-01 2.875133730023149425e-02
2.556636950472845893e-01 2.875133730023149425e-02
2.564503525705070230e-01 2.875133730023171630e-02
2.572370100937294013e-01 2.875133730023193834e-02
2.580236676169518351e-01 2.875133730023238243e-02
2.588103251401742688e-01 2.875133730023438083e-02
2.595969826633966471e-01 2.875133730023704537e-02
2.603836401866190808e-01 2.875133730024903578e-02
2.611702977098415146e-01 2.875133730026568912e-02
2.619569552330638929e-01 2.875133730032963797e-02
2.627436127562863266e-01 2.875133730041934399e-02
2.635302702795087604e-01 2.875133730072931826e-02
2.643169278027311386e-01 2.875133730116274933e-02
2.651035853259535724e-01 2.875133730252033004e-02
2.658902428491760062e-01 2.875133730441614688e-02
2.666769003723983844e-01 2.875133730979717583e-02
2.674635578956208182e-01 2.875133731731915887e-02
2.682502154188431964e-01 2.875133733666679348e-02
2.690368729420656302e-01 2.875133736382506910e-02
2.698235304652880640e-01 2.875133742716218244e-02
2.706101879885104422e-01 2.875133751672342974e-02
2.713968455117328760e-01 2.875133770650806220e-02
2.721835030349553097e-01 2.875133797764228838e-02
2.729701605581776880e-01 2.875133850215072506e-02
2.737568180814001217e-01 2.875133926084960656e-02
2.745434756046225555e-01 2.875134061205120162e-02
2.753301331278449338e-01 2.875134259214706667e-02
2.761167906510673675e-01 2.875134588037475680e-02
2.769034481742898013e-01 2.875135075370427451e-02
2.776901056975121795e-01 2.875135842457487989e-02
2.784767632207346133e-01 2.875136987260029642e-02
2.792634207439570471e-01 2.875138725137915685e-02
2.800500782671794253e-01 2.875141320945528989e-02
2.808367357904018591e-01 2.875145176514015688e-02
2.816233933136242373e-01 2.875150905120027467e-02
2.824100508368466711e-01 2.875159303511298781e-02
2.831967083600691049e-01 2.875171661423348013e-02
2.839833658832914831e-01 2.875189602629601993e-02
2.847700234065139169e-01 2.875215691048693678e-02
2.855566809297363506e-01 2.875253205182959348e-02
2.863433384529587289e-01 2.875307080997746567e-02
2.871299959761811627e-01 2.875383769063510897e-02
2.879166534994035964e-01 2.875492553907310622e-02
2.887033110226259747e-01 2.875645771718948751e-02
2.894899685458484084e-01 2.875860493697790510e-02
2.902766260690708422e-01 2.876159631341934642e-02
2.910632835922932204e-01 2.876573867698151155e-02
2.918499411155156542e-01 2.877144413310706028e-02
2.926365986387380325e-01 2.877925242166035069e-02
2.934232561619604662e-01 2.878988051336150988e-02
2.942099136851829000e-01 2.880425676262898804e-02
2.949965712084052782e-01 2.882359070010376279e-02
2.957832287316277120e-01 2.884943702404574317e-02
2.965698862548501458e-01 2.888378120238277447e-02
2.973565437780725240e-01 2.892914747538255504e-02
2.981432013012949578e-01 2.898870851763546419e-02
2.989298588245173915e-01 2.906643296580213587e-02
2.997165163477397698e-01 2.916724210744359169e-02
3.005031738709622036e-01 2.929718292770266963e-02
3.012898313941846373e-01 2.946364299194792480e-02
3.020764889174070156e-01 2.967554909474112712e-02
3.028631464406294493e-01 2.994361711604431875e-02
3.036498039638518831e-01 3.028058256406773729e-02
3.044364614870742614e-01 3.070144599746793546e-02
3.052231190102966951e-01 3.122370904694138360e-02
3.060097765335190734e-01 3.186758197273031890e-02
3.067964340567415071e-01 3.265616033230700488e-02
3.075830915799639409e-01 3.361554170687131027e-02
3.083697491031863192e-01 3.477487161269610105e-02
3.091564066264087529e-01 3.616627475212963461e-02
3.099430641496311867e-01 3.782468735577348973e-02
3.107297216728535649e-01 3.978750713222622970e-02
3.115163791960759987e-01 4.209409642334493995e-02
3.123030367192984325e-01 4.478508100132949643e-02
3.130896942425208107e-01 4.790142930587948378e-02
3.138763517657432445e-01 5.148332986665082878e-02
3.146630092889656782e-01 5.556883625481412459e-02
3.154496668121880565e-01 6.019229466387976402e-02
3.162363243354104902e-01 6.538260670074858005e-02
3.170229818586329240e-01 7.116131949821125069e-02
3.178096393818553023e-01 7.754063608359063053e-02
3.185962969050777360e-01 8.452140569905197687e-02
3.193829544283001143e-01 9.209117850970294228e-02
3.201696119515225480e-01 1.002224121677626201e-01
3.209562694747449818e-01 1.088709921139578984e-01
3.217429269979673601e-01 1.179751052711348613e-01
3.225295845211897938e-01 1.274546477217510798e-01
3.233162420444122276e-01 1.372112821124908955e-01
3.241028995676346058e-01 1.471291604919475748e-01
3.248895570908570396e-01 1.570765125712041410e-01
3.256762146140794734e-01 1.669080446827175823e-01
3.264628721373018516e-01 1.764681778122716427e-01
3.272495296605242854e-01 1.855951444660639549e-01
3.280361871837467191e-01 1.941257764107717776e-01
3.288228447069690974e-01 2.019008905501165074e-01
3.296095022301915312e-01 2.087711111455221591e-01
3.303961597534139649e-01 2.146028220910702888e-01
3.311828172766363432e-01 2.192840470036365730e-01
3.319694747998587769e-01 2.227299390584720484e-01
3.327561323230811552e-01 2.248875490977189084e-01
3.335427898463035890e-01 2.257396069564598928e-01
3.343294473695260227e-01 2.253070190745729562e-01
3.351161048927484010e-01 2.236498319405924029e-01
3.359027624159708347e-01 2.208665076061864241e-01
3.366894199391932685e-01 2.170914024954386790e-01
3.374760774624156467e-01 2.124904285199780141e-01
3.382627349856380805e-01 2.072549995773431686e-01
3.390493925088605143e-01 2.015944416995187893e-01
3.398360500320828925e-01 1.957271362542594151e-01
3.406227075553053263e-01 1.898707740031091440e-01
3.414093650785277601e-01 1.842321525361823031e-01
3.421960226017501383e-01 1.789969884680997492e-01
3.429826801249725721e-01 1.743202586981023039e-01
3.437693376481950058e-01 1.703175654230353331e-01
3.445559951714173841e-01 1.670579750770886385e-01
3.453426526946398178e-01 1.645587434258730664e-01
3.461293102178621961e-01 1.627822321959158103e-01
3.469159677410846299e-01 1.616352303866783746e-01
3.477026252643070636e-01 1.609707532193507262e-01
3.484892827875294419e-01 1.605923070460812951e-01
3.492759403107518756e-01 1.602604268748839544e-01
3.500625978339743094e-01 1.597012401474937615e-01
3.508492553571966877e-01 1.586166710904952648e-01
3.516359128804191214e-01 1.566958393613220313e-01
3.524225704036415552e-01 1.536271624163922933e-01
3.532092279268639334e-01 1.491106253360996448e-01
3.539958854500863672e-01 1.428697256449829034e-01
3.547825429733088010e-01 1.346625945973121130e-01
3.555692004965311792e-01 1.242918715084784242e-01
3.563558580197536130e-01 1.116129861485632979e-01
3.571425155429760467e-01 9.654056755738049667e-02
3.579291730661984250e-01 7.905280620553334359e-02
3.587158305894208588e-01 5.919369849670763628e-02
3.595024881126432370e-01 3.707316882403044467e-02
3.602891456358656708e-01 1.286515543581567833e-02
3.610758031590881045e-01 -1.319618888882667651e-02
3.618624606823104828e-01 -4.082197063754000599e-02
3.626491182055329165e-01 -6.967547626638637137e-02
3.634357757287553503e-01 -9.938026252271747740e-02
3.642224332519777286e-01 -1.295291425984816946e-01
3.650090907752001623e-01 -1.596937983600726918e-01
3.657957482984225961e-01 -1.894347667252019862e-01
3.665824058216449743e-01 -2.183115145431774318e-01
3.673690633448674081e-01 -2.458923996885445939e-01
3.681557208680898419e-01 -2.717642805026408981e-01
3.689423783913122201e-01 -2.955415847101280358e-01
3.697290359145346539e-01 -3.168746367913407580e-01
3.705156934377570321e-01 -3.354571000649765322e-01
3.713023509609794659e-01 -3.510323670265393936e-01
3.720890084842018997e-01 -3.633987410875670898e-01
3.728756660074242779e-01 -3.724133333907336807e-01
3.736623235306467117e-01 -3.779945571281931871e-01
3.744489810538691454e-01 -3.801231447257099605e-01
3.752356385770915237e-01 -3.788416699162863166e-01
3.760222961003139575e-01 -3.742525735377452145e-01
3.768089536235363912e-01 -3.665147283095013808e-01
3.775956111467587695e-01 -3.558386289118697920e-01
3.783822686699812032e-01 -3.424803581738078417e-01
3.791689261932036370e-01 -3.267344932346993858e-01
3.799555837164260153e-01 -3.089261443562698606e-01
3.807422412396484490e-01 -2.894024114979648621e-01
3.815288987628708828e-01 -2.685235132752488152e-01
3.823155562860932610e-01 -2.466538517900188632e-01
3.831022138093156948e-01 -2.241533147833624229e-01
3.838888713325380730e-01 -2.013690984444770349e-01
3.846755288557605068e-01 -1.786282648419272867e-01
3.854621863789829406e-01 -1.562312606473275078e-01
3.862488439022053188e-01 -1.344465800533858335e-01
3.870355014254277526e-01 -1.135066702308209496e-01
3.878221589486501863e-01 -9.360513301933170993e-02
3.886088164718725646e-01 -7.489526233620724671e-02
3.893954739950949984e-01 -5.748985783340576639e-02
3.901821315183174321e-01 -4.146221120465065635e-02
3.909687890415398104e-01 -2.684814947608760161e-02
3.917554465647622441e-01 -1.364898275891812673e-02
3.925421040879846779e-01 -1.835161622743997079e-03
3.933287616112070562e-01 8.649541837602248151e-03
3.941154191344294899e-01 1.788350653408432578e-02
3.949020766576519237e-01 2.596257983831939953e-02
3.956887341808743019e-01 3.299540148200152956e-02
3.964753917040967357e-01 3.909886491656111573e-02
3.972620492273191140e-01 4.439383705106281219e-02
3.980487067505415477e-01 4.900122105178961185e-02
3.988353642737639815e-01 5.303844069534169314e-02
3.996220217969863597e-01 5.661637470741642808e-02
4.004086793202087935e-01 5.983675612432604041e-02
4.011953368434312273e-01 6.279006286965893580e-02
4.019819943666536055e-01 6.555388561955943771e-02
4.027686518898760393e-01 6.819176165869422768e-02
4.035553094130984730e-01 7.075245657774242858e-02
4.043419669363208513e-01 7.326969497794943997e-02
4.051286244595432851e-01 7.576230145048712394e-02
4.059152819827657188e-01 7.823473889187493313e-02
4.067019395059880971e-01 8.067803991687605425e-02
4.074885970292105308e-01 8.307109161657266760e-02
4.082752545524329646e-01 8.538225218543726847e-02
4.090619120756553428e-01 8.757124362185630950e-02
4.098485695988777766e-01 8.959131689177080027e-02
4.106352271221001549e-01 9.139158929862101211e-02
4.114218846453225886e-01 9.291949379707298284e-02
4.122085421685450224e-01 9.412328949693593572e-02
4.129951996917674006e-01 9.495451256062348300e-02
4.137818572149898344e-01 9.537030127901102716e-02
4.145685147382122682e-01 9.533548126638158315e-02
4.153551722614346464e-01 9.482435893283880368e-02
4.161418297846570802e-01 9.382210091427523047e-02
4.169284873078795139e-01 9.232566042453282940e-02
4.177151448311018922e-01 9.034420189473935103e-02
4.185018023543243260e-01 8.789899716796623075e-02
4.192884598775467597e-01 8.502277660871326859e-02
4.200751174007691380e-01 8.175857413292186848e-02
4.208617749239915717e-01 7.815812032809876797e-02
4.216484324472140055e-01 7.427982770917340716e-02
4.224350899704363838e-01 7.018648314772590879e-02
4.232217474936588175e-01 6.594274892617657535e-02
4.240084050168811958e-01 6.161259266032192983e-02
4.247950625401036295e-01 5.725675939665308967e-02
4.255817200633260633e-01 5.293042168885708776e-02
4.263683775865484415e-01 4.868111812999509347e-02
4.271550351097708753e-01 4.454708298408238676e-02
4.279416926329933091e-01 4.055604961339809300e-02
4.287283501562156873e-01 3.672460498528695716e-02
4.295150076794381211e-01 3.305811860087803922e-02
4.303016652026605549e-01 2.955126339748348485e-02
4.310883227258829331e-01 2.618911569057824629e-02
4.318749802491053669e-01 2.294879537324345797e-02
4.326616377723278006e-01 1.980157757602096780e-02
4.334482952955501789e-01 1.671538582450704524e-02
4.342349528187726126e-01 1.365755583698025077e-02
4.350216103419950464e-01 1.059777109445136922e-02
4.358082678652174247e-01 7.511004602610116265e-03
4.365949253884398584e-01 4.380374242164863929e-03
4.373815829116622367e-01 1.199746604535700811e-03
4.381682404348846704e-01 -2.024028305932734639e-03
4.389548979581071042e-01 -5.269363438779151032e-03
4.397415554813294825e-01 -8.498769500722591630e-03
4.405282130045519162e-01 -1.165835825458549913e-02
4.413148705277743500e-01 -1.467808658753710915e-02
4.421015280509967282e-01 -1.747276060156344180e-02
4.428881855742191620e-01 -1.994382648603465480e-02
4.436748430974415958e-01 -2.198192014792621496e-02
4.444615006206639740e-01 -2.347011944881149947e-02
4.452481581438864078e-01 -2.428782391776451721e-02
4.460348156671088415e-01 -2.431515296583142138e-02
4.468214731903312198e-01 -2.343772065930349591e-02
4.476081307135536536e-01 -2.155162434395418991e-02
4.483947882367760318e-01 -1.856845166054665874e-02
4.491814457599984656e-01 -1.442012164600237067e-02
4.499681032832208993e-01 -9.063343136366586172e-03
4.507547608064432776e-01 -2.483472340486958529e-03
4.515414183296657114e-01 5.302425705103752662e-03
4.523280758528881451e-01 1.424347499437428333e-02
4.531147333761105234e-01 2.425403511707080462e-02
4.539013908993329571e-01 3.521399040786032941e-02
4.546880484225553909e-01 4.697034957582468806e-02
4.554747059457777691e-01 5.934017569959126881e-02
4.562613634690002029e-01 7.211480389500390942e-02
4.570480209922226367e-01 8.506523240210395187e-02
4.578346785154450149e-01 9.794852951391996854e-02
4.586213360386674487e-01 1.105150138770754076e-01
4.594079935618898825e-01 1.225159625954224119e-01
4.601946510851122607e-01 1.337115263645773933e-01
4.609813086083346945e-01 1.438785064807748260e-01
4.617679661315570727e-01 1.528176767939770642e-01
4.625546236547795065e-01 1.603603188481754760e-01
4.633412811780019402e-01 1.663736609939123756e-01
4.641279387012243185e-01 1.707649832780904209e-01
4.649145962244467523e-01 1.734841910331574866e-01
4.657012537476691860e-01 1.745247307000212800e-01
4.664879112708915643e-01 1.739228178820750870e-01
4.672745687941139980e-01 1.717550133772876020e-01
4.680612263173364318e-01 1.681342768161719903e-01
4.688478838405588101e-01 1.632046876555499626e-01
4.696345413637812438e-01 1.571350995048503840e-01