0.000000000000000000e+00 2.872880758187346117e-02
7.866575232224141392e-04 2.875133730023149425e-02
1.573315046444828278e-03 2.875133730023149425e-02
2.359972569667242309e-03 2.875133730023149425e-02
3.146630092889656557e-03 2.875133730023149425e-02
3.933287616112070804e-03 2.875133730023149425e-02
4.719945139334484618e-03 2.875133730023149425e-02
5.506602662556899300e-03 2.875133730023149425e-02
6.293260185779313114e-03 2.875133730023149425e-02
7.079917709001726928e-03 2.875133730023149425e-02
7.866575232224141609e-03 2.875133730023149425e-02
8.653232755446556290e-03 2.875133730023149425e-02
9.439890278668969237e-03 2.875133730023149425e-02
1.022654780189138392e-02 2.875133730023149425e-02
1.101320532511379860e-02 2.875133730023149425e-02
1.179986284833621155e-02 2.875133730023149425e-02
1.258652037155862623e-02 2.875133730023149425e-02
1.337317789478104091e-02 2.875133730023149425e-02
1.415983541800345386e-02 2.875133730023149425e-02
1.494649294122586854e-02 2.875133730023149425e-02
1.573315046444828322e-02 2.875133730023149425e-02
1.651980798767069616e-02 2.875133730023149425e-02
1.730646551089311258e-02 2.875133730023149425e-02
1.809312303411552553e-02 2.875133730023149425e-02
1.887978055733793847e-02 2.875133730023149425e-02
1.966643808056035489e-02 2.875133730023149425e-02
2.045309560378276784e-02 2.875133730023149425e-02
2.123975312700518078e-02 2.875133730023149425e-02
2.202641065022759720e-02 2.875133730023149425e-02
2.281306817345001015e-02 2.875133730023149425e-02
2.359972569667242309e-02 2.875133730023149425e-02
2.438638321989483951e-02 2.875133730023149425e-02
2.517304074311725245e-02 2.875133730023149425e-02
2.595969826633966540e-02 2.875133730023149425e-02
2.674635578956208182e-02 2.875133730023149425e-02
2.753301331278449476e-02 2.875133730023149425e-02
2.831967083600690771e-02 2.875133730023149425e-02
2.910632835922932413e-02 2.875133730023149425e-02
2.989298588245173707e-02 2.875133730023149425e-02
3.067964340567415002e-02 2.875133730023149425e-02
3.146630092889656644e-02 2.875133730023149425e-02
3.225295845211897938e-02 2.875133730023149425e-02
3.303961597534139233e-02 2.875133730023149425e-02
3.382627349856380528e-02 2.875133730023149425e-02
3.461293102178622516e-02 2.875133730023149425e-02
3.539958854500863811e-02 2.875133730023149425e-02
3.618624606823105105e-02 2.875133730023149425e-02
3.697290359145346400e-02 2.875133730023149425e-02
3.775956111467587695e-02 2.875133730023149425e-02
3.854621863789828989e-02 2.875133730023149425e-02
3.933287616112070978e-02 2.875133730023149425e-02
4.011953368434312273e-02 2.875133730023149425e-02
4.090619120756553567e-02 2.875133730023149425e-02
4.169284873078794862e-02 2.875133730023149425e-02
4.247950625401036157e-02 2.875133730023149425e-02
4.326616377723277451e-02 2.875133730023149425e-02
4.405282130045519440e-02 2.875133730023149425e-02
4.483947882367760734e-02 2.875133730023149425e-02
4.562613634690002029e-02 2.875133730023149425e-02
4.641279387012243324e-02 2.875133730023149425e-02
4.719945139334484618e-02 2.875133730023149425e-02
4.798610891656725913e-02 2.875133730023149425e-02
4.877276643978967902e-02 2.875133730023149425e-02
4.955942396301209196e-02 2.875133730023149425e-02
5.034608148623450491e-02 2.875133730023149425e-02
5.113273900945691786e-02 2.875133730023149425e-02
5.191939653267933080e-02 2.875133730023149425e-02
5.270605405590175069e-02 2.875133730023149425e-02
5.349271157912416363e-02 2.875133730023149425e-02
5.427936910234657658e-02 2.875133730023149425e-02
5.506602662556898953e-02 2.875133730023149425e-02
5.585268414879140247e-02 2.875133730023149425e-02
5.663934167201381542e-02 2.875133730023149425e-02
5.742599919523623531e-02 2.875133730023149425e-02
5.821265671845864825e-02 2.875133730023149425e-02
5.899931424168106120e-02 2.875133730023149425e-02
5.978597176490347415e-02 2.875133730023149425e-02
6.057262928812588709e-02 2.875133730023149425e-02
6.135928681134830004e-02 2.875133730023149425e-02
6.214594433457071992e-02 2.875133730023149425e-02
6.293260185779313287e-02 2.875133730023149425e-02
6.371925938101553888e-02 2.875133730023149425e-02
6.450591690423795876e-02 2.875133730023149425e-02
6.529257442746037865e-02 2.875133730023149425e-02
6.607923195068278466e-02 2.875133730023149425e-02
6.686588947390520454e-02 2.875133730023149425e-02
6.765254699712761055e-02 2.875133730023149425e-02
6.843920452035003044e-02 2.875133730023149425e-02
6.922586204357245032e-02 2.875133730023149425e-02
7.001251956679485633e-02 2.875133730023149425e-02
7.079917709001727621e-02 2.875133730023149425e-02
7.158583461323968222e-02 2.875133730023149425e-02
7.237249213646210211e-02 2.875133730023149425e-02
7.315914965968450812e-02 2.875133730023149425e-02
7.394580718290692800e-02 2.875133730023149425e-02
7.473246470612934789e-02 2.875133730023149425e-02
7.551912222935175389e-02 2.875133730023149425e-02
7.630577975257417378e-02 2.875133730023149425e-02
7.709243727579657979e-02 2.875133730023149425e-02
7.787909479901899967e-02 2.875133730023149425e-02
7.866575232224141956e-02 2.875133730023149425e-02
7.945240984546382557e-02 2.875133730023149425e-02
8.023906736868624545e-02 2.875133730023149425e-02
8.102572489190865146e-02 2.875133730023149425e-02
8.181238241513107134e-02 2.875133730023149425e-02
8.259903993835349123e-02 2.875133730023149425e-02
8.338569746157589724e-02 2.875133730023149425e-02
8.417235498479831712e-02 2.875133730023149425e-02
8.495901250802072313e-02 2.875133730023149425e-02
8.574567003124314302e-02 2.875133730023149425e-02
8.653232755446554902e-02 2.875133730023149425e-02
8.731898507768796891e-02 2.875133730023149425e-02
8.810564260091038880e-02 2.875133730023149425e-02
8.889230012413279480e-02 2.875133730023149425e-02
8.967895764735521469e-02 2.875133730023149425e-02
9.046561517057762070e-02 2.875133730023149425e-02
9.125227269380004058e-02 2.875133730023149425e-02
9.203893021702246047e-02 2.875133730023149425e-02
9.282558774024486647e-02 2.875133730023149425e-02
9.361224526346728636e-02 2.875133730023149425e-02
9.439890278668969237e-02 2.875133730023149425e-02
9.518556030991211225e-02 2.875133730023149425e-02
9.597221783313451826e-02 2.875133730023149425e-02
9.675887535635693815e-02 2.875133730023149425e-02
9.754553287957935803e-02 2.875133730023149425e-02
9.833219040280176404e-02 2.875133730023149425e-02
9.911884792602418393e-02 2.875133730023149425e-02
9.990550544924658993e-02 2.875133730023149425e-02
1.006921629724690098e-01 2.875133730023149425e-02
1.014788204956914297e-01 2.875133730023149425e-02
1.022654780189138357e-01 2.875133730023149425e-02
1.030521355421362556e-01 2.875133730023149425e-02
1.038387930653586616e-01 2.875133730023149425e-02
1.046254505885810815e-01 2.875133730023149425e-02
1.054121081118035014e-01 2.875133730023149425e-02
1.061987656350259074e-01 2.875133730023149425e-02
1.069854231582483273e-01 2.875133730023149425e-02
1.077720806814707333e-01 2.875133730023149425e-02
1.085587382046931532e-01 2.875133730023149425e-02
1.093453957279155592e-01 2.875133730023149425e-02
1.101320532511379791e-01 2.875133730023149425e-02
1.109187107743603989e-01 2.875133730023149425e-02
1.117053682975828049e-01 2.875133730023149425e-02
1.124920258208052248e-01 2.875133730023149425e-02
1.132786833440276308e-01 2.875133730023149425e-02
1.140653408672500507e-01 2.875133730023149425e-02
1.148519983904724706e-01 2.875133730023149425e-02
1.156386559136948766e-01 2.875133730023149425e-02
1.164253134369172965e-01 2.875133730023149425e-02
1.172119709601397025e-01 2.875133730023149425e-02
1.179986284833621224e-01 2.875133730023149425e-02
1.187852860065845284e-01 2.875133730023149425e-02
1.195719435298069483e-01 2.875133730023149425e-02
1.203586010530293682e-01 2.875133730023149425e-02
1.211452585762517742e-01 2.875133730023149425e-02
1.219319160994741941e-01 2.875133730023149425e-02
1.227185736226966001e-01 2.875133730023149425e-02
1.235052311459190200e-01 2.875133730023149425e-02
1.242918886691414398e-01 2.875133730023149425e-02
1.250785461923638597e-01 2.875133730023149425e-02
1.258652037155862657e-01 2.875133730023149425e-02
1.266518612388086718e-01 2.875133730023149425e-02
1.274385187620310778e-01 2.875133730023149425e-02
1.282251762852535115e-01 2.875133730023149425e-02
1.290118338084759175e-01 2.875133730023149425e-02
1.297984913316983235e-01 2.875133730023149425e-02
1.305851488549207573e-01 2.875133730023149425e-02
1.313718063781431633e-01 2.875133730023149425e-02
1.321584639013655693e-01 2.875133730023149425e-02
1.329451214245880031e-01 2.875133730023149425e-02
1.337317789478104091e-01 2.875133730023149425e-02
1.345184364710328151e-01 2.875133730023149425e-02
1.353050939942552211e-01 2.875133730023149425e-02
1.360917515174776549e-01 2.875133730023149425e-02
1.368784090407000609e-01 2.875133730023149425e-02
1.376650665639224669e-01 2.875133730023149425e-02
1.384517240871449006e-01 2.875133730023149425e-02
1.392383816103673067e-01 2.875133730023149425e-02
1.400250391335897127e-01 2.875133730023149425e-02
1.408116966568121187e-01 2.875133730023149425e-02
1.415983541800345524e-01 2.875133730023149425e-02
1.423850117032569584e-01 2.875133730023149425e-02
1.431716692264793644e-01 2.875133730023149425e-02
1.439583267497017982e-01 2.875133730023149425e-02
1.447449842729242042e-01 2.875133730023149425e-02
1.455316417961466102e-01 2.875133730023149425e-02
1.463182993193690162e-01 2.875133730023149425e-02
1.471049568425914500e-01 2.875133730023149425e-02
1.478916143658138560e-01 2.875133730023149425e-02
1.486782718890362620e-01 2.875133730023149425e-02
1.494649294122586958e-01 2.875133730023149425e-02
1.502515869354811018e-01 2.875133730023149425e-02
1.510382444587035078e-01 2.875133730023149425e-02
1.518249019819259416e-01 2.875133730023149425e-02
1.526115595051483476e-01 2.875133730023149425e-02
1.533982170283707536e-01 2.875133730023149425e-02
1.541848745515931596e-01 2.875133730023149425e-02
1.549715320748155933e-01 2.875133730023149425e-02
1.557581895980379993e-01 2.875133730023149425e-02
1.565448471212604054e-01 2.875133730023149425e-02
1.573315046444828391e-01 2.875133730023149425e-02
1.581181621677052451e-01 2.875133730023149425e-02
1.589048196909276511e-01 2.875133730023149425e-02
1.596914772141500571e-01 2.875133730023149425e-02
1.604781347373724909e-01 2.875133730023149425e-02
1.612647922605948969e-01 2.875133730023149425e-02
1.620514497838173029e-01 2.875133730023149425e-02
1.628381073070397367e-01 2.875133730023149425e-02
1.636247648302621427e-01 2.875133730023149425e-02
1.644114223534845487e-01 2.875133730023149425e-02
1.651980798767069825e-01 2.875133730023149425e-02
1.659847373999293885e-01 2.875133730023149425e-02
1.667713949231517945e-01 2.875133730023149425e-02
1.675580524463742005e-01 2.875133730023149425e-02
1.683447099695966342e-01 2.875133730023149425e-02
1.691313674928190403e-01 2.875133730023149425e-02
1.699180250160414463e-01 2.875133730023149425e-02
1.707046825392638800e-01 2.875133730023149425e-02
1.714913400624862860e-01 2.875133730023149425e-02
1.722779975857086920e-01 2.875133730023149425e-02
1.730646551089310980e-01 2.875133730023149425e-02
1.738513126321535318e-01 2.875133730023149425e-02
1.746379701553759378e-01 2.875133730023149425e-02
1.754246276785983438e-01 2.875133730023149425e-02
1.762112852018207776e-01 2.875133730023149425e-02
1.769979427250431836e-01 2.875133730023149425e-02
1.777846002482655896e-01 2.875133730023149425e-02
1.785712577714880234e-01 2.875133730023149425e-02
1.793579152947104294e-01 2.875133730023149425e-02
1.801445728179328354e-01 2.875133730023149425e-02
1.809312303411552414e-01 2.875133730023149425e-02
1.817178878643776752e-01 2.875133730023149425e-02
1.825045453876000812e-01 2.875133730023149425e-02
1.832912029108224872e-01 2.875133730023149425e-02
1.840778604340449209e-01 2.875133730023149425e-02
1.848645179572673269e-01 2.875133730023149425e-02
1.856511754804897329e-01 2.875133730023149425e-02
1.864378330037121390e-01 2.875133730023149425e-02
1.872244905269345727e-01 2.875133730023149425e-02
1.880111480501569787e-01 2.875133730023149425e-02
1.887978055733793847e-01 2.875133730023149425e-02
1.895844630966018185e-01 2.875133730023149425e-02
1.903711206198242245e-01 2.875133730023149425e-02
1.911577781430466305e-01 2.875133730023149425e-02
1.919444356662690365e-01 2.875133730023149425e-02
1.927310931894914703e-01 2.875133730023149425e-02
1.935177507127138763e-01 2.875133730023149425e-02
1.943044082359362823e-01 2.875133730023149425e-02
1.950910657591587161e-01 2.875133730023149425e-02
1.958777232823811221e-01 2.875133730023149425e-02
1.966643808056035281e-01 2.875133730023149425e-02
1.974510383288259618e-01 2.875133730023149425e-02
1.982376958520483679e-01 2.875133730023149425e-02
1.990243533752707739e-01 2.875133730023149425e-02
1.998110108984931799e-01 2.875133730023149425e-02
2.005976684217156136e-01 2.875133730023149425e-02
2.013843259449380196e-01 2.875133730023149425e-02
2.021709834681604256e-01 2.875133730023149425e-02
2.029576409913828594e-01 2.875133730023149425e-02
2.037442985146052654e-01 2.875133730023149425e-02
2.045309560378276714e-01 2.875133730023149425e-02
2.053176135610500774e-01 2.875133730023149425e-02
2.061042710842725112e-01 2.875133730023149425e-02
2.068909286074949172e-01 2.875133730023149425e-02
2.076775861307173232e-01 2.875133730023149425e-02
2.084642436539397570e-01 2.875133730023149425e-02
2.092509011771621630e-01 2.875133730023149425e-02
2.100375587003845690e-01 2.875133730023149425e-02
2.108242162236070028e-01 2.875133730023149425e-02
2.116108737468294088e-01 2.875133730023149425e-02
2.123975312700518148e-01 2.875133730023149425e-02
2.131841887932742208e-01 2.875133730023149425e-02
2.139708463164966545e-01 2.875133730023149425e-02
2.147575038397190605e-01 2.875133730023149425e-02
2.155441613629414666e-01 2.875133730023149425e-02
2.163308188861639003e-01 2.875133730023149425e-02
2.171174764093863063e-01 2.875133730023149425e-02
2.179041339326087123e-01 2.875133730023149425e-02
2.186907914558311183e-01 2.875133730023149425e-02
2.194774489790535521e-01 2.875133730023149425e-02
2.202641065022759581e-01 2.875133730023149425e-02
2.210507640254983641e-01 2.875133730023149425e-02
2.218374215487207979e-01 2.875133730023149425e-02
2.226240790719432039e-01 2.875133730023149425e-02
2.234107365951656099e-01 2.875133730023149425e-02
2.241973941183880159e-01 2.875133730023149425e-02
2.249840516416104497e-01 2.875133730023149425e-02
2.257707091648328557e-01 2.875133730023149425e-02
2.265573666880552617e-01 2.875133730023149425e-02
2.273440242112776954e-01 2.875133730023149425e-02
2.281306817345001015e-01 2.875133730023149425e-02
2.289173392577225075e-01 2.875133730023149425e-02
2.297039967809449412e-01 2.875133730023149425e-02
2.304906543041673472e-01 2.875133730023149425e-02
2.312773118273897532e-01 2.875133730023149425e-02
2.320639693506121592e-01 2.875133730023149425e-02
2.328506268738345930e-01 2.875133730023149425e-02
2.336372843970569990e-01 2.875133730023149425e-02
2.344239419202794050e-01 2.875133730023149425e-02
2.352105994435018388e-01 2.875133730023149425e-02
2.359972569667242448e-01 2.875133730023149425e-02
2.367839144899466508e-01 2.875133730023149425e-02
2.375705720131690568e-01 2.875133730023149425e-02
2.383572295363914906e-01 2.875133730023149425e-02
2.391438870596138966e-01 2.875133730023149425e-02
2.399305445828363026e-01 2.875133730023149425e-02
2.407172021060587364e-01 2.875133730023149425e-02
2.415038596292811424e-01 2.875133730023149425e-02
2.422905171525035484e-01 2.875133730023149425e-02
2.430771746757259821e-01 2.875133730023149425e-02
2.438638321989483881e-01 2.875133730023149425e-02
2.446504897221707941e-01 2.875133730023149425e-02
2.454371472453932002e-01 2.875133730023149425e-02
2.462238047686156339e-01 2.875133730023149425e-02
2.470104622918380399e-01 2.875133730023149425e-02
2.477971198150604459e-01 2.875133730023149425e-02
2.485837773382828797e-01 2.875133730023149425e-02
2.493704348615052857e-01 2.875133730023149425e-02
2.501570923847277195e-01 2.875133730023149425e-02
2.509437499079500977e-01 2.875133730023149425e-02
2.517304074311725315e-01 2.875133730023149425e-02
2.525170649543949652e-01 2.875133730023149425e-02
2.533037224776173435e-01 2.875133730023149425e-02
2.540903800008397773e-01 2.875133730023149425e-02
2.548770375240621555e-01 2.875133730023149425e-02
2.556636950472845893e-01 2.875133730023149425e-02
2.564503525705070230e-01 2.875133730023149425e-02
2.572370100937294013e-01 2.875133730023149425e-02
2.580236676169518351e-01 2.875133730023149425e-02
2.588103251401742688e-01 2.875133730023171630e-02
2.595969826633966471e-01 2.875133730023216039e-02
2.603836401866190808e-01 2.875133730023304857e-02
2.611702977098415146e-01 2.875133730023682332e-02
2.619569552330638929e-01 2.875133730024148626e-02
2.627436127562863266e-01 2.875133730026568912e-02
2.635302702795087604e-01 2.875133730029544310e-02
2.643169278027311386e-01 2.875133730043155644e-02
2.651035853259535724e-01 2.875133730059920012e-02
2.658902428491760062e-01 2.875133730127643616e-02
2.666769003723983844e-01 2.875133730211687499e-02
2.674635578956208182e-01 2.875133730512113850e-02
2.682502154188431964e-01 2.875133730889500860e-02
2.690368729420656302e-01 2.875133732079926396e-02
2.698235304652880640e-01 2.875133733600332420e-02
2.706101879885104422e-01 2.875133737826773839e-02
2.713968455117328760e-01 2.875133743339519654e-02
2.721835030349553097e-01 2.875133756836056875e-02
2.729701605581776880e-01 2.875133774896454497e-02
2.737568180814001217e-01 2.875133813896146862e-02
2.745434756046225555e-01 2.875133867645551788e-02
2.753301331278449338e-01 2.875133970607923750e-02
2.761167906510673675e-01 2.875134117057553951e-02
2.769034481742898013e-01 2.875134369106979726e-02
2.776901056975121795e-01 2.875134738483753338e-02
2.784767632207346133e-01 2.875135322210131683e-02
2.792634207439570471e-01 2.875136197283278960e-02
2.800500782671794253e-01 2.875137505017955064e-02
2.808367357904018591e-01 2.875139485130739914e-02
2.816233933136242373e-01 2.875142368868899290e-02
2.824100508368466711e-01 2.875146715282728138e-02
2.831967083600691049e-01 2.875153012194098245e-02
2.839833658832914831e-01 2.875162359934724243e-02
2.847700234065139169e-01 2.875175913477656664e-02
2.855566809297363506e-01 2.875195664388408012e-02
2.863433384529587289e-01 2.875224197401937687e-02
2.871299959761811627e-01 2.875265100423285425e-02
2.879166534994035964e-01 2.875323586040900992e-02
2.887033110226259747e-01 2.875406338959640706e-02
2.894899685458484084e-01 2.875523053355277803e-02
2.902766260690708422e-01 2.875686334864613336e-02
2.910632835922932204e-01 2.875913500964211167e-02
2.918499411155156542e-01 2.876227681674281556e-02
2.926365986387380325e-01 2.876659334601794349e-02
2.934232561619604662e-01 2.877249066327247640e-02
2.942099136851829000e-01 2.878049527183401679e-02
2.949965712084052782e-01 2.879129314974449017e-02
2.957832287316277120e-01 2.880576794726952272e-02
2.965698862548501458e-01 2.882504544778385913e-02
2.973565437780725240e-01 2.885055713595385818e-02
2.981432013012949578e-01 2.888409952651804780e-02
2.989298588245173915e-01 2.892791390076032698e-02
2.997165163477397698e-01 2.898477344430760994e-02
3.005031738709622036e-01 2.905807325832499011e-02
3.012898313941846373e-01 2.915193860257447867e-02
3.020764889174070156e-01 2.927133206635690321e-02
3.028631464406294493e-01 2.942216092144711581e-02
3.036498039638518831e-01 2.961139688514191626e-02
3.044364614870742614e-01 2.984716687921618039e-02
3.052231190102966951e-01 3.013885151762552006e-02
3.060097765335190734e-01 3.049714125840696788e-02
3.067964340567415071e-01 3.093407071840736933e-02
3.075830915799639409e-01 3.146299724276691023e-02
3.083697491031863192e-01 3.209853044163168967e-02
3.091564066264087529e-01 3.285638177513439118e-02
3.099430641496311867e-01 3.375313122314649306e-02
3.107297216728535649e-01 3.480591219592654717e-02
3.115163791960759987e-01 3.603195585713936389e-02
3.123030367192984325e-01 3.744807476237466126e-02
3.130896942425208107e-01 3.906997759653130231e-02
3.138763517657432445e-01 4.091152028344646752e-02
3.146630092889656782e-01 4.298383725903209829e-02
3.154496668121880565e-01 4.529439885965147461e-02
3.162363243354104902e-01 4.784603316157709507e-02
3.170229818586329240e-01 5.063592346230461061e-02
3.178096393818553023e-01 5.365465806067515331e-02
3.185962969050777360e-01 5.688536133598320887e-02
3.193829544283001143e-01 6.030299513354586693e-02
3.201696119515225480e-01 6.387386524207139260e-02
3.209562694747449818e-01 6.755542810929315856e-02
3.217429269979673601e-01 7.129643734813506661e-02
3.225295845211897938e-01 7.503749035428253222e-02
3.233162420444122276e-01 7.871201527881122040e-02
3.241028995676346058e-01 8.224772158864879223e-02
3.248895570908570396e-01 8.556850025967399631e-02
3.256762146140794734e-01 8.859676462393051288e-02
3.264628721373018516e-01 9.125616144533332807e-02
3.272495296605242854e-01 9.347456276387777763e-02
3.280361871837467191e-01 9.518724061679062487e-02
3.288228447069690974e-01 9.634007012708623030e-02
3.296095022301915312e-01 9.689260386225839738e-02
3.303961597534139649e-01 9.682085901375914183e-02
3.311828172766363432e-01 9.611963029394110514e-02
3.319694747998587769e-01 9.480416224358978461e-02
3.327561323230811552e-01 9.291104863839416694e-02
3.335427898463035890e-01 9.049822787074268682e-02
3.343294473695260227e-01 8.764400018844886731e-02
3.351161048927484010e-01 8.444505027651905138e-02
3.359027624159708347e-01 8.101348839246824696e-02
3.366894199391932685e-01 7.747299317432232435e-02
3.374760774624156467e-01 7.395420447599088121e-02
3.382627349856380805e-01 7.058954787448379342e-02
3.390493925088605143e-01 6.750771535328881079e-02
3.398360500320828925e-01 6.482807454704109240e-02
3.406227075553053263e-01 6.265527530949799306e-02
3.414093650785277601e-01 6.107431389916095910e-02
3.421960226017501383e-01 6.014633152665793681e-02
3.429826801249725721e-01 5.990535919958328570e-02
3.437693376481950058e-01 6.035617235855461615e-02
3.445559951714173841e-01 6.147339019825781570e-02
3.453426526946398178e-01 6.320186050143439260e-02
3.461293102178621961e-01 6.545830148175291185e-02
3.469159677410846299e-01 6.813413461910977631e-02
3.477026252643070636e-01 7.109936108786252262e-02
3.484892827875294419e-01 7.420727332633281215e-02
3.492759403107518756e-01 7.729979187755708914e-02
3.500625978339743094e-01 8.021316790806998220e-02
3.508492553571966877e-01 8.278379097919019713e-02
3.516359128804191214e-01 8.485385420838897907e-02
3.524225704036415552e-01 8.627667140332473394e-02
3.532092279268639334e-01 8.692141622950666502e-02
3.539958854500863672e-01 8.667716505962008711e-02
3.547825429733088010e-01 8.545611994481938645e-02
3.555692004965311792e-01 8.319594637503580081e-02
3.563558580197536130e-01 7.986121579493521416e-02
3.571425155429760467e-01 7.544395346806398450e-02
3.579291730661984250e-01 6.996335674826048567e-02
3.587158305894208588e-01 6.346472033119732181e-02
3.595024881126432370e-01 5.601768405945151130e-02
3.602891456358656708e-01 4.771387348709810183e-02
3.610758031590881045e-01 3.866402824186154774e-02
3.618624606823104828e-01 2.899472001473002436e-02
3.626491182055329165e-01 1.884475167841226373e-02
3.634357757287553503e-01 8.361314313007461863e-03
3.642224332519777286e-01 -2.303981861546011700e-03
3.650090907752001623e-01 -1.299912245197221150e-02
3.657957482984225961e-01 -2.357565563556429655e-02
3.665824058216449743e-01 -3.389248978058467809e-02
3.673690633448674081e-01 -4.381942575586572630e-02
3.681557208680898419e-01 -5.324031396168193986e-02
3.689423783913122201e-01 -6.205570797461323895e-02
3.697290359145346539e-01 -7.018492783256313761e-02
3.705156934377570321e-01 -7.756743576113134253e-02
3.713023509609794659e-01 -8.416344486444238271e-02
3.720890084842018997e-01 -8.995372310724047971e-02
3.728756660074242779e-01 -9.493858843203817344e-02
3.736623235306467117e-01 -9.913610637236314194e-02
3.744489810538691454e-01 -1.025795762317676108e-01
3.752356385770915237e-01 -1.053144160662099482e-01
3.760222961003139575e-01 -1.073945759778196507e-01
3.768089536235363912e-01 -1.088786826975713939e-01
3.775956111467587695e-01 -1.098260910918197331e-01
3.783822686699812032e-01 -1.102930742745049653e-01
3.791689261932036370e-01 -1.103293407653246350e-01
3.799555837164260153e-01 -1.099750811565587405e-01
3.807422412396484490e-01 -1.092587049719908610e-01
3.815288987628708828e-01 -1.081953941614643977e-01
3.823155562860932610e-01 -1.067865503072249478e-01
3.831022138093156948e-01 -1.050201675332096407e-01
3.838888713325380730e-01 -1.028721090561744989e-01
3.846755288557605068e-01 -1.003081948114032951e-01
3.854621863789829406e-01 -9.728699296969767207e-02
3.862488439022053188e-01 -9.376314782163130968e-02
3.870355014254277526e-01 -8.969105104065411282e-02
3.878221589486501863e-01 -8.502864305527291222e-02
3.886088164718725646e-01 -7.974114891489758605e-02
3.893954739950949984e-01 -7.380453289885724466e-02
3.901821315183174321e-01 -6.720847968678722584e-02
3.909687890415398104e-01 -5.995877319444398168e-02
3.917554465647622441e-01 -5.207893533598229041e-02
3.925421040879846779e-01 -4.361104220963352152e-02
3.933287616112070562e-01 -3.461570982521899875e-02
3.941154191344294899e-01 -2.517125010987231182e-02
3.949020766576519237e-01 -1.537203916770291112e-02
3.956887341808743019e-01 -5.326204715993987371e-03
3.964753917040967357e-01 4.847254284144009162e-03
3.972620492273191140e-01 1.502177932989146036e-02
3.980487067505415477e-01 2.506684043410922769e-02
3.988353642737639815e-01 3.485163756488685038e-02
3.996220217969863597e-01 4.424875325803911963e-02
4.004086793202087935e-01 5.313764508580365309e-02
4.011953368434312273e-01 6.140781411507756360e-02
4.019819943666536055e-01 6.896155108638724052e-02
4.027686518898760393e-01 7.571619981442623271e-02
4.035553094130984730e-01 8.160586891946275401e-02
4.043419669363208513e-01 8.658255683621884913e-02
4.051286244595432851e-01 9.061669814990769289e-02
4.059152819827657188e-01 9.369716412691042606e-02
4.067019395059880971e-01 9.583072341471310374e-02
4.074885970292105308e-01 9.704105000530205416e-02
4.082752545524329646e-01 9.736733362589200524e-02
4.090619120756553428e-01 9.686257391745756173e-02
4.098485695988777766e-01 9.559162560889067350e-02
4.106352271221001549e-01 9.362908006046932741e-02
4.114218846453225886e-01 9.105706454537765282e-02
4.122085421685450224e-01 8.796302685120505060e-02
4.129951996917674006e-01 8.443754370474887416e-02
4.137818572149898344e-01 8.057223976103222718e-02
4.145685147382122682e-01 7.645784588393245151e-02
4.153551722614346464e-01 7.218241113322032554e-02
4.161418297846570802e-01 6.782972536162046318e-02
4.169284873078795139e-01 6.347794253212035720e-02
4.177151448311018922e-01 5.919843102256594491e-02
4.185018023543243260e-01 5.505482767402924971e-02
4.192884598775467597e-01 5.110232795886915369e-02
4.200751174007691380e-01 4.738717028316230540e-02
4.208617749239915717e-01 4.394633737672193341e-02
4.216484324472140055e-01 4.080742984924690120e-02
4.224350899704363838e-01 3.798873214134235177e-02
4.232217474936588175e-01 3.549944418014416847e-02
4.240084050168811958e-01 3.334005450446020369e-02
4.247950625401036295e-01 3.150286432572291240e-02
4.255817200633260633e-01 2.997263424490048678e-02
4.263683775865484415e-01 2.872735181368768487e-02
4.271550351097708753e-01 2.773908263715263445e-02
4.279416926329933091e-01 2.697492100062159892e-02
4.287283501562156873e-01 2.639799799247710688e-02
4.295150076794381211e-01 2.596854327802100570e-02
4.303016652026605549e-01 2.564497074060234638e-02
4.310883227258829331e-01 2.538497129107764039e-02
4.318749802491053669e-01 2.514659813111097542e-02
4.326616377723278006e-01 2.488930679866552254e-02
4.334482952955501789e-01 2.457493312051117762e-02
4.342349528187726126e-01 2.416860509399620938e-02
4.350216103419950464e-01 2.363953869497770199e-02
4.358082678652174247e-01 2.296173236437448750e-02
4.365949253884398584e-01 2.211452639173394630e-02
4.373815829116622367e-01 2.108304276907380093e-02
4.381682404348846704e-01 1.985848927533750974e-02
4.389548979581071042e-01 1.843832902116604444e-02
4.397415554813294825e-01 1.682634299273644274e-02
4.405282130045519162e-01 1.503259574143722688e-02
4.413148705277743500e-01 1.307330696184227925e-02
4.421015280509967282e-01 1.097066680484393153e-02
4.428881855742191620e-01 8.752610356080658960e-03
4.436748430974415958e-01 6.452564055875020799e-03
4.444615006206639740e-01 4.109184266885224091e-03
4.452481581438864078e-01 1.766093891143905026e-03
4.460348156671088415e-01 -5.283791572656681979e-04
4.468214731903312198e-01 -2.721475493160596670e-03
4.476081307135536536e-01 -4.756308708711576294e-03
4.483947882367760318e-01 -6.572220157627151060e-03
4.491814457599984656e-01 -8.105209342937680361e-03
4.499681032832208993e-01 -9.288517045653588156e-03
4.507547608064432776e-01 -1.005335913398475167e-02
4.515414183296657114e-01 -1.032987991476541634e-02
4.523280758528881451e-01 -1.004834997294978827e-02
4.531147333761105234e-01 -9.140654271412529397e-03
4.539013908993329571e-01 -7.542057594321915914e-03
4.546880484225553909e-01 -5.193265157288351475e-03
4.554747059457777691e-01 -2.042742022076216024e-03
4.562613634690002029e-01 1.950749448255129082e-03
4.570480209922226367e-01 6.815470678819712802e-03
4.578346785154450149e-01 1.256399210982306336e-02
4.586213360386674487e-01 1.919053295523087677e-02
4.594079935618898825e-01 2.666852345655423839e-02
4.601946510851122607e-01 3.494851794905651232e-02
4.609813086083346945e-01 4.395661140082585128e-02
4.617679661315570727e-01 5.359349600362239840e-02
4.625546236547795065e-01 6.373432239857357295e-02
4.633412811780019402e-01 7.422944782571838651e-02
4.641279387012243185e-01 8.490615945437318679e-02
4.649145962244467523e-01 9.557142147659658526e-02
4.657012537476691860e-01 1.060156355371435488e-01
4.664879112708915643e-01 1.160173644258206682e-01
4.672745687941139980e-01 1.253489147483295429e-01
4.680612263173364318e-01 1.337826285503520563e-01
4.688478838405588101e-01 1.410976690633884978e-01
4.696345413637812438e-01 1.470870826265922027e-01