0.000000000000000000e+00 2.910570264552170272e-02
7.866575232224141392e-04 2.875133730023149425e-02
1.573315046444828278e-03 2.875133730023149425e-02
2.359972569667242309e-03 2.875133730023149425e-02
3.146630092889656557e-03 2.875133730023149425e-02
3.933287616112070804e-03 2.875133730023149425e-02
4.719945139334484618e-03 2.875133730023149425e-02
5.506602662556899300e-03 2.875133730023149425e-02
6.293260185779313114e-03 2.875133730023149425e-02
7.079917709001726928e-03 2.875133730023149425e-02
7.866575232224141609e-03 2.875133730023149425e-02
8.653232755446556290e-03 2.875133730023149425e-02
9.439890278668969237e-03 2.875133730023149425e-02
1.022654780189138392e-02 2.875133730023149425e-02
1.101320532511379860e-02 2.875133730023149425e-02
1.179986284833621155e-02 2.875133730023149425e-02
1.258652037155862623e-02 2.875133730023149425e-02
1.337317789478104091e-02 2.875133730023149425e-02
1.415983541800345386e-02 2.875133730023149425e-02
1.494649294122586854e-02 2.875133730023149425e-02
1.573315046444828322e-02 2.875133730023149425e-02
1.651980798767069616e-02 2.875133730023149425e-02
1.730646551089311258e-02 2.875133730023149425e-02
1.809312303411552553e-02 2.875133730023149425e-02
1.887978055733793847e-02 2.875133730023149425e-02
1.966643808056035489e-02 2.875133730023149425e-02
2.045309560378276784e-02 2.875133730023149425e-02
2.123975312700518078e-02 2.875133730023149425e-02
2.202641065022759720e-02 2.875133730023149425e-02
2.281306817345001015e-02 2.875133730023149425e-02
2.359972569667242309e-02 2.875133730023149425e-02
2.438638321989483951e-02 2.875133730023149425e-02
2.517304074311725245e-02 2.875133730023149425e-02
2.595969826633966540e-02 2.875133730023149425e-02
2.674635578956208182e-02 2.875133730023149425e-02
2.753301331278449476e-02 2.875133730023149425e-02
2.831967083600690771e-02 2.875133730023149425e-02
2.910632835922932413e-02 2.875133730023149425e-02
2.989298588245173707e-02 2.875133730023149425e-02
3.067964340567415002e-02 2.875133730023149425e-02
3.146630092889656644e-02 2.875133730023149425e-02
3.225295845211897938e-02 2.875133730023149425e-02
3.303961597534139233e-02 2.875133730023149425e-02
3.382627349856380528e-02 2.875133730023149425e-02
3.461293102178622516e-02 2.875133730023149425e-02
3.539958854500863811e-02 2.875133730023149425e-02
3.618624606823105105e-02 2.875133730023149425e-02
3.697290359145346400e-02 2.875133730023149425e-02
3.775956111467587695e-02 2.875133730023149425e-02
3.854621863789828989e-02 2.875133730023149425e-02
3.933287616112070978e-02 2.875133730023149425e-02
4.011953368434312273e-02 2.875133730023149425e-02
4.090619120756553567e-02 2.875133730023149425e-02
4.169284873078794862e-02 2.875133730023149425e-02
4.247950625401036157e-02 2.875133730023149425e-02
4.326616377723277451e-02 2.875133730023149425e-02
4.405282130045519440e-02 2.875133730023149425e-02
4.483947882367760734e-02 2.875133730023149425e-02
4.562613634690002029e-02 2.875133730023149425e-02
4.641279387012243324e-02 2.875133730023149425e-02
4.719945139334484618e-02 2.875133730023149425e-02
4.798610891656725913e-02 2.875133730023149425e-02
4.877276643978967902e-02 2.875133730023149425e-02
4.955942396301209196e-02 2.875133730023149425e-02
5.034608148623450491e-02 2.875133730023149425e-02
5.113273900945691786e-02 2.875133730023149425e-02
5.191939653267933080e-02 2.875133730023149425e-02
5.270605405590175069e-02 2.875133730023149425e-02
5.349271157912416363e-02 2.875133730023149425e-02
5.427936910234657658e-02 2.875133730023149425e-02
5.506602662556898953e-02 2.875133730023149425e-02
5.585268414879140247e-02 2.875133730023149425e-02
5.663934167201381542e-02 2.875133730023149425e-02
5.742599919523623531e-02 2.875133730023149425e-02
5.821265671845864825e-02 2.875133730023149425e-02
5.899931424168106120e-02 2.875133730023149425e-02
5.978597176490347415e-02 2.875133730023149425e-02
6.057262928812588709e-02 2.875133730023149425e-02
6.135928681134830004e-02 2.875133730023149425e-02
6.214594433457071992e-02 2.875133730023149425e-02
6.293260185779313287e-02 2.875133730023149425e-02
6.371925938101553888e-02 2.875133730023149425e-02
6.450591690423795876e-02 2.875133730023149425e-02
6.529257442746037865e-02 2.875133730023149425e-02
6.607923195068278466e-02 2.875133730023149425e-02
6.686588947390520454e-02 2.875133730023149425e-02
6.765254699712761055e-02 2.875133730023149425e-02
6.843920452035003044e-02 2.875133730023149425e-02
6.922586204357245032e-02 2.875133730023149425e-02
7.001251956679485633e-02 2.875133730023149425e-02
7.079917709001727621e-02 2.875133730023149425e-02
7.158583461323968222e-02 2.875133730023149425e-02
7.237249213646210211e-02 2.875133730023149425e-02
7.315914965968450812e-02 2.875133730023149425e-02
7.394580718290692800e-02 2.875133730023149425e-02
7.473246470612934789e-02 2.875133730023149425e-02
7.551912222935175389e-02 2.875133730023149425e-02
7.630577975257417378e-02 2.875133730023149425e-02
7.709243727579657979e-02 2.875133730023149425e-02
7.787909479901899967e-02 2.875133730023149425e-02
7.866575232224141956e-02 2.875133730023149425e-02
7.945240984546382557e-02 2.875133730023149425e-02
8.023906736868624545e-02 2.875133730023149425e-02
8.102572489190865146e-02 2.875133730023149425e-02
8.181238241513107134e-02 2.875133730023149425e-02
8.259903993835349123e-02 2.875133730023149425e-02
8.338569746157589724e-02 2.875133730023149425e-02
8.417235498479831712e-02 2.875133730023149425e-02
8.495901250802072313e-02 2.875133730023149425e-02
8.574567003124314302e-02 2.875133730023149425e-02
8.653232755446554902e-02 2.875133730023149425e-02
8.731898507768796891e-02 2.875133730023149425e-02
8.810564260091038880e-02 2.875133730023149425e-02
8.889230012413279480e-02 2.875133730023149425e-02
8.967895764735521469e-02 2.875133730023149425e-02
9.046561517057762070e-02 2.875133730023149425e-02
9.125227269380004058e-02 2.875133730023149425e-02
9.203893021702246047e-02 2.875133730023149425e-02
9.282558774024486647e-02 2.875133730023149425e-02
9.361224526346728636e-02 2.875133730023149425e-02
9.439890278668969237e-02 2.875133730023149425e-02
9.518556030991211225e-02 2.875133730023149425e-02
9.597221783313451826e-02 2.875133730023149425e-02
9.675887535635693815e-02 2.875133730023149425e-02
9.754553287957935803e-02 2.875133730023149425e-02
9.833219040280176404e-02 2.875133730023149425e-02
9.911884792602418393e-02 2.875133730023149425e-02
9.990550544924658993e-02 2.875133730023149425e-02
1.006921629724690098e-01 2.875133730023149425e-02
1.014788204956914297e-01 2.875133730023149425e-02
1.022654780189138357e-01 2.875133730023149425e-02
1.030521355421362556e-01 2.875133730023149425e-02
1.038387930653586616e-01 2.875133730023149425e-02
1.046254505885810815e-01 2.875133730023149425e-02
1.054121081118035014e-01 2.875133730023149425e-02
1.061987656350259074e-01 2.875133730023149425e-02
1.069854231582483273e-01 2.875133730023149425e-02
1.077720806814707333e-01 2.875133730023149425e-02
1.085587382046931532e-01 2.875133730023149425e-02
1.093453957279155592e-01 2.875133730023149425e-02
1.101320532511379791e-01 2.875133730023149425e-02
1.109187107743603989e-01 2.875133730023149425e-02
1.117053682975828049e-01 2.875133730023149425e-02
1.124920258208052248e-01 2.875133730023149425e-02
1.132786833440276308e-01 2.875133730023149425e-02
1.140653408672500507e-01 2.875133730023149425e-02
1.148519983904724706e-01 2.875133730023149425e-02
1.156386559136948766e-01 2.875133730023149425e-02
1.164253134369172965e-01 2.875133730023149425e-02
1.172119709601397025e-01 2.875133730023149425e-02
1.179986284833621224e-01 2.875133730023149425e-02
1.187852860065845284e-01 2.875133730023149425e-02
1.195719435298069483e-01 2.875133730023149425e-02
1.203586010530293682e-01 2.875133730023149425e-02
1.211452585762517742e-01 2.875133730023149425e-02
1.219319160994741941e-01 2.875133730023149425e-02
1.227185736226966001e-01 2.875133730023149425e-02
1.235052311459190200e-01 2.875133730023149425e-02
1.242918886691414398e-01 2.875133730023149425e-02
1.250785461923638597e-01 2.875133730023149425e-02
1.258652037155862657e-01 2.875133730023149425e-02
1.266518612388086718e-01 2.875133730023149425e-02
1.274385187620310778e-01 2.875133730023149425e-02
1.282251762852535115e-01 2.875133730023149425e-02
1.290118338084759175e-01 2.875133730023149425e-02
1.297984913316983235e-01 2.875133730023149425e-02
1.305851488549207573e-01 2.875133730023149425e-02
1.313718063781431633e-01 2.875133730023149425e-02
1.321584639013655693e-01 2.875133730023149425e-02
1.329451214245880031e-01 2.875133730023149425e-02
1.337317789478104091e-01 2.875133730023149425e-02
1.345184364710328151e-01 2.875133730023149425e-02
1.353050939942552211e-01 2.875133730023149425e-02
1.360917515174776549e-01 2.875133730023149425e-02
1.368784090407000609e-01 2.875133730023149425e-02
1.376650665639224669e-01 2.875133730023149425e-02
1.384517240871449006e-01 2.875133730023149425e-02
1.392383816103673067e-01 2.875133730023149425e-02
1.400250391335897127e-01 2.875133730023149425e-02
1.408116966568121187e-01 2.875133730023149425e-02
1.415983541800345524e-01 2.875133730023149425e-02
1.423850117032569584e-01 2.875133730023149425e-02
1.431716692264793644e-01 2.875133730023149425e-02
1.439583267497017982e-01 2.875133730023149425e-02
1.447449842729242042e-01 2.875133730023149425e-02
1.455316417961466102e-01 2.875133730023149425e-02
1.463182993193690162e-01 2.875133730023149425e-02
1.471049568425914500e-01 2.875133730023149425e-02
1.478916143658138560e-01 2.875133730023149425e-02
1.486782718890362620e-01 2.875133730023149425e-02
1.494649294122586958e-01 2.875133730023149425e-02
1.502515869354811018e-01 2.875133730023149425e-02
1.510382444587035078e-01 2.875133730023149425e-02
1.518249019819259416e-01 2.875133730023149425e-02
1.526115595051483476e-01 2.875133730023149425e-02
1.533982170283707536e-01 2.875133730023149425e-02
1.541848745515931596e-01 2.875133730023149425e-02
1.549715320748155933e-01 2.875133730023149425e-02
1.557581895980379993e-01 2.875133730023149425e-02
1.565448471212604054e-01 2.875133730023149425e-02
1.573315046444828391e-01 2.875133730023149425e-02
1.581181621677052451e-01 2.875133730023149425e-02
1.589048196909276511e-01 2.875133730023149425e-02
1.596914772141500571e-01 2.875133730023149425e-02
1.604781347373724909e-01 2.875133730023149425e-02
1.612647922605948969e-01 2.875133730023149425e-02
1.620514497838173029e-01 2.875133730023149425e-02
1.628381073070397367e-01 2.875133730023149425e-02
1.636247648302621427e-01 2.875133730023149425e-02
1.644114223534845487e-01 2.875133730023149425e-02
1.651980798767069825e-01 2.875133730023149425e-02
1.659847373999293885e-01 2.875133730023149425e-02
1.667713949231517945e-01 2.875133730023149425e-02
1.675580524463742005e-01 2.875133730023149425e-02
1.683447099695966342e-01 2.875133730023149425e-02
1.691313674928190403e-01 2.875133730023149425e-02
1.699180250160414463e-01 2.875133730023149425e-02
1.707046825392638800e-01 2.875133730023149425e-02
1.714913400624862860e-01 2.875133730023149425e-02
1.722779975857086920e-01 2.875133730023149425e-02
1.730646551089310980e-01 2.875133730023149425e-02
1.738513126321535318e-01 2.875133730023149425e-02
1.746379701553759378e-01 2.875133730023149425e-02
1.754246276785983438e-01 2.875133730023149425e-02
1.762112852018207776e-01 2.875133730023149425e-02
1.769979427250431836e-01 2.875133730023149425e-02
1.777846002482655896e-01 2.875133730023149425e-02
1.785712577714880234e-01 2.875133730023149425e-02
1.793579152947104294e-01 2.875133730023149425e-02
1.801445728179328354e-01 2.875133730023149425e-02
1.809312303411552414e-01 2.875133730023149425e-02
1.817178878643776752e-01 2.875133730023149425e-02
1.825045453876000812e-01 2.875133730023149425e-02
1.832912029108224872e-01 2.875133730023149425e-02
1.840778604340449209e-01 2.875133730023149425e-02
1.848645179572673269e-01 2.875133730023149425e-02
1.856511754804897329e-01 2.875133730023149425e-02
1.864378330037121390e-01 2.875133730023149425e-02
1.872244905269345727e-01 2.875133730023149425e-02
1.880111480501569787e-01 2.875133730023149425e-02
1.887978055733793847e-01 2.875133730023149425e-02
1.895844630966018185e-01 2.875133730023149425e-02
1.903711206198242245e-01 2.875133730023149425e-02
1.911577781430466305e-01 2.875133730023149425e-02
1.919444356662690365e-01 2.875133730023149425e-02
1.927310931894914703e-01 2.875133730023149425e-02
1.935177507127138763e-01 2.875133730023149425e-02
1.943044082359362823e-01 2.875133730023149425e-02
1.950910657591587161e-01 2.875133730023149425e-02
1.958777232823811221e-01 2.875133730023149425e-02
1.966643808056035281e-01 2.875133730023149425e-02
1.974510383288259618e-01 2.875133730023149425e-02
1.982376958520483679e-01 2.875133730023149425e-02
1.990243533752707739e-01 2.875133730023149425e-02
1.998110108984931799e-01 2.875133730023149425e-02
2.005976684217156136e-01 2.875133730023149425e-02
2.013843259449380196e-01 2.875133730023149425e-02
2.021709834681604256e-01 2.875133730023149425e-02
2.029576409913828594e-01 2.875133730023149425e-02
2.037442985146052654e-01 2.875133730023149425e-02
2.045309560378276714e-01 2.875133730023149425e-02
2.053176135610500774e-01 2.875133730023149425e-02
2.061042710842725112e-01 2.875133730023149425e-02
2.068909286074949172e-01 2.875133730023149425e-02
2.076775861307173232e-01 2.875133730023149425e-02
2.084642436539397570e-01 2.875133730023149425e-02
2.092509011771621630e-01 2.875133730023149425e-02
2.100375587003845690e-01 2.875133730023149425e-02
2.108242162236070028e-01 2.875133730023149425e-02
2.116108737468294088e-01 2.875133730023149425e-02
2.123975312700518148e-01 2.875133730023149425e-02
2.131841887932742208e-01 2.875133730023149425e-02
2.139708463164966545e-01 2.875133730023149425e-02
2.147575038397190605e-01 2.875133730023149425e-02
2.155441613629414666e-01 2.875133730023149425e-02
2.163308188861639003e-01 2.875133730023149425e-02
2.171174764093863063e-01 2.875133730023149425e-02
2.179041339326087123e-01 2.875133730023149425e-02
2.186907914558311183e-01 2.875133730023149425e-02
2.194774489790535521e-01 2.875133730023149425e-02
2.202641065022759581e-01 2.875133730023149425e-02
2.210507640254983641e-01 2.875133730023149425e-02
2.218374215487207979e-01 2.875133730023149425e-02
2.226240790719432039e-01 2.875133730023149425e-02
2.234107365951656099e-01 2.875133730023149425e-02
2.241973941183880159e-01 2.875133730023149425e-02
2.249840516416104497e-01 2.875133730023149425e-02
2.257707091648328557e-01 2.875133730023149425e-02
2.265573666880552617e-01 2.875133730023149425e-02
2.273440242112776954e-01 2.875133730023149425e-02
2.281306817345001015e-01 2.875133730023149425e-02
2.289173392577225075e-01 2.875133730023149425e-02
2.297039967809449412e-01 2.875133730023149425e-02
2.304906543041673472e-01 2.875133730023149425e-02
2.312773118273897532e-01 2.875133730023149425e-02
2.320639693506121592e-01 2.875133730023149425e-02
2.328506268738345930e-01 2.875133730023149425e-02
2.336372843970569990e-01 2.875133730023149425e-02
2.344239419202794050e-01 2.875133730023149425e-02
2.352105994435018388e-01 2.875133730023149425e-02
2.359972569667242448e-01 2.875133730023149425e-02
2.367839144899466508e-01 2.875133730023149425e-02
2.375705720131690568e-01 2.875133730023149425e-02
2.383572295363914906e-01 2.875133730023149425e-02
2.391438870596138966e-01 2.875133730023149425e-02
2.399305445828363026e-01 2.875133730023149425e-02
2.407172021060587364e-01 2.875133730023149425e-02
2.415038596292811424e-01 2.875133730023149425e-02
2.422905171525035484e-01 2.875133730023149425e-02
2.430771746757259821e-01 2.875133730023149425e-02
2.438638321989483881e-01 2.875133730023149425e-02
2.446504897221707941e-01 2.875133730023149425e-02
2.454371472453932002e-01 2.875133730023149425e-02
2.462238047686156339e-01 2.875133730023149425e-02
2.470104622918380399e-01 2.875133730023149425e-02
2.477971198150604459e-01 2.875133730023171630e-02
2.485837773382828797e-01 2.875133730023193834e-02
2.493704348615052857e-01 2.875133730023304857e-02
2.501570923847277195e-01 2.875133730023415879e-02
2.509437499079500977e-01 2.875133730024059808e-02
2.517304074311725315e-01 2.875133730024681533e-02
2.525170649543949652e-01 2.875133730028167633e-02
2.533037224776173435e-01 2.875133730031587120e-02
2.540903800008397773e-01 2.875133730048706759e-02
2.548770375240621555e-01 2.875133730066048443e-02
2.556636950472845893e-01 2.875133730142764854e-02
2.564503525705070230e-01 2.875133730222834139e-02
2.572370100937294013e-01 2.875133730537604571e-02
2.580236676169518351e-01 2.875133730876933136e-02
2.588103251401742688e-01 2.875133732059209635e-02
2.595969826633966471e-01 2.875133733379864331e-02
2.603836401866190808e-01 2.875133737451252003e-02
2.611702977098415146e-01 2.875133742179070140e-02
2.619569552330638929e-01 2.875133755064829266e-02
2.627436127562863266e-01 2.875133770664306532e-02
2.635302702795087604e-01 2.875133808289676018e-02
2.643169278027311386e-01 2.875133855872036293e-02
2.651035853259535724e-01 2.875133957833519993e-02
2.658902428491760062e-01 2.875134092590769797e-02
2.666769003723983844e-01 2.875134351273533895e-02
2.674635578956208182e-01 2.875134707768922659e-02
2.682502154188431964e-01 2.875135329434508336e-02
2.690368729420656302e-01 2.875136217432827657e-02
2.698235304652880640e-01 2.875137652106096731e-02
2.706101879885104422e-01 2.875139754988009777e-02
2.713968455117328760e-01 2.875142976403255446e-02
2.721835030349553097e-01 2.875147759916929502e-02
2.729701605581776880e-01 2.875154862076856332e-02
2.737568180814001217e-01 2.875165412162639100e-02
2.745434756046225555e-01 2.875180833903123734e-02
2.753301331278449338e-01 2.875203543051330080e-02
2.761167906510673675e-01 2.875236465854191792e-02
2.769034481742898013e-01 2.875284320684801109e-02
2.776901056975121795e-01 2.875353179791684255e-02
2.784767632207346133e-01 2.875451935731576647e-02
2.792634207439570471e-01 2.875592685820138605e-02
2.800500782671794253e-01 2.875792075111083257e-02
2.808367357904018591e-01 2.876073041871252123e-02
2.816233933136242373e-01 2.876466544335087860e-02
2.824100508368466711e-01 2.877014473814365481e-02
2.831967083600691049e-01 2.877773268887473535e-02
2.839833658832914831e-01 2.878817530767929789e-02
2.847700234065139169e-01 2.880247080819287042e-02
2.855566809297363506e-01 2.882191906052034014e-02
2.863433384529587289e-01 2.884823057183116823e-02
2.871299959761811627e-01 2.888361364605351866e-02
2.879166534994035964e-01 2.893091663840374750e-02
2.887033110226259747e-01 2.899378276515496289e-02
2.894899685458484084e-01 2.907682912473652515e-02
2.902766260690708422e-01 2.918588421932288846e-02
2.910632835922932204e-01 2.932822474468621543e-02
2.918499411155156542e-01 2.951289280395830161e-02
2.926365986387380325e-01 2.975101324306472783e-02
2.934232561619604662e-01 3.005618214047767189e-02
2.942099136851829000e-01 3.044486771886711907e-02
2.949965712084052782e-01 3.093685728356221354e-02
2.957832287316277120e-01 3.155571854515359931e-02
2.965698862548501458e-01 3.232927172175092956e-02
2.973565437780725240e-01 3.329005815989805050e-02
2.981432013012949578e-01 3.447577359746922809e-02
2.989298588245173915e-01 3.592965014914661914e-02
2.997165163477397698e-01 3.770075163061936685e-02
3.005031738709622036e-01 3.984413817082899101e-02
3.012898313941846373e-01 4.242087788648585267e-02
3.020764889174070156e-01 4.549784420094971082e-02
3.028631464406294493e-01 4.914726266488300688e-02
3.036498039638518831e-01 5.344597195064260120e-02
3.044364614870742614e-01 5.847434182103428135e-02
3.052231190102966951e-01 6.431482435189717073e-02
3.060097765335190734e-01 7.105013337181609323e-02
3.067964340567415071e-01 7.876099067746622495e-02
3.075830915799639409e-01 8.752352121055251288e-02
3.083697491031863192e-01 9.740625642344458157e-02
3.091564066264087529e-01 1.084668320133874708e-01
3.099430641496311867e-01 1.207484659034718799e-01
3.107297216728535649e-01 1.342762756600519580e-01
3.115163791960759987e-01 1.490536111026965482e-01
3.123030367192984325e-01 1.650585217992652787e-01
3.130896942425208107e-01 1.822405351775664428e-01
3.138763517657432445e-01 2.005179282811415664e-01
3.146630092889656782e-01 2.197756858436408223e-01
3.154496668121880565e-01 2.398643034021821219e-01
3.162363243354104902e-01 2.605996265570200698e-01
3.170229818586329240e-01 2.817638593296474259e-01
3.178096393818553023e-01 3.031078255335666327e-01
3.185962969050777360e-01 3.243545704942305541e-01
3.193829544283001143e-01 3.452042808385522576e-01
3.201696119515225480e-01 3.653404478402644262e-01
3.209562694747449818e-01 3.844371772665295950e-01
3.217429269979673601e-01 4.021674150469165543e-01
3.225295845211897938e-01 4.182118396618610401e-01
3.233162420444122276e-01 4.322681257769227514e-01
3.241028995676346058e-01 4.440602002089060196e-01
3.248895570908570396e-01 4.533471196151646065e-01
3.256762146140794734e-01 4.599311980048346182e-01
3.264628721373018516e-01 4.636649894191731125e-01
3.272495296605242854e-01 4.644567992585610927e-01
3.280361871837467191e-01 4.622744478901654741e-01
3.288228447069690974e-01 4.571470627331901682e-01
3.296095022301915312e-01 4.491647708306503173e-01
3.303961597534139649e-01 4.384762841778868658e-01
3.311828172766363432e-01 4.252844197429701545e-01
3.319694747998587769e-01 4.098397420163975013e-01
3.327561323230811552e-01 3.924325824356609260e-01
3.335427898463035890e-01 3.733837792498460040e-01
3.343294473695260227e-01 3.530345105526315752e-01
3.351161048927484010e-01 3.317356997952383146e-01
3.359027624159708347e-01 3.098374008670132795e-01
3.366894199391932685e-01 2.876786348661535264e-01
3.374760774624156467e-01 2.655780785992041260e-01
3.382627349856380805e-01 2.438259685255956821e-01
3.390493925088605143e-01 2.226774928126349362e-01
3.398360500320828925e-01 2.023478947236649894e-01
3.406227075553053263e-01 1.830093971669481956e-01
3.414093650785277601e-01 1.647899528998570950e-01
3.421960226017501383e-01 1.477737902188027697e-01
3.429826801249725721e-01 1.320035773905081644e-01
3.437693376481950058e-01 1.174840088654480752e-01
3.445559951714173841e-01 1.041865442635512284e-01
3.453426526946398178e-01 9.205501074531086125e-02
3.461293102178621961e-01 8.101173564181585185e-02
3.469159677410846299e-01 7.096390753207049151e-02
3.477026252643070636e-01 6.180986782420916370e-02
3.484892827875294419e-01 5.344504547432071817e-02
3.492759403107518756e-01 4.576732079633516470e-02
3.500625978339743094e-01 3.868163523654333247e-02
3.508492553571966877e-01 3.210370194561829038e-02
3.516359128804191214e-01 2.596274831582534581e-02
3.524225704036415552e-01 2.020326132491234716e-02
3.532092279268639334e-01 1.478574901323903568e-02
3.539958854500863672e-01 9.686575202935365780e-03
3.547825429733088010e-01 4.896972452907544238e-03
3.555692004965311792e-01 4.213404077546556437e-04
3.563558580197536130e-01 -3.725037391400731757e-03
3.571425155429760467e-01 -7.518698155150271845e-03
3.579291730661984250e-01 -1.093098555863591947e-02
3.587158305894208588e-01 -1.393117249609265862e-02
3.595024881126432370e-01 -1.648957341479817540e-02
3.602891456358656708e-01 -1.858052753212557917e-02
3.610758031590881045e-01 -2.018515158527667275e-02
3.618624606823104828e-01 -2.129376878719790867e-02
3.626491182055329165e-01 -2.190794042001809050e-02
3.634357757287553503e-01 -2.204206399054831067e-02
3.642224332519777286e-01 -2.172449939603282587e-02
3.650090907752001623e-01 -2.099821152742609165e-02
3.657957482984225961e-01 -1.992093702771580155e-02
3.665824058216449743e-01 -1.856489969026164921e-02
3.673690633448674081e-01 -1.701608812559296524e-02
3.681557208680898419e-01 -1.537314776686604656e-02
3.689423783913122201e-01 -1.374592341583547039e-02
3.697290359145346539e-01 -1.225370041593443204e-02
3.705156934377570321e-01 -1.102318661980628001e-02
3.713023509609794659e-01 -1.018630241877982456e-02
3.720890084842018997e-01 -9.877813273194702148e-03
3.728756660074242779e-01 -1.023286047706306601e-02
3.736623235306467117e-01 -1.138443760136198524e-02
3.744489810538691454e-01 -1.346086215539599173e-02
3.752356385770915237e-01 -1.658328323336277776e-02
3.760222961003139575e-01 -2.086328037201778951e-02
3.768089536235363912e-01 -2.640060231100493926e-02
3.775956111467587695e-01 -3.328107482575626275e-02
3.783822686699812032e-01 -4.157473028431790674e-02
3.791689261932036370e-01 -5.133418777096376839e-02
3.799555837164260153e-01 -6.259332628017044708e-02
3.807422412396484490e-01 -7.536625760244097805e-02
3.815288987628708828e-01 -8.964663428709651605e-02
3.823155562860932610e-01 -1.054072704797945903e-01
3.831022138093156948e-01 -1.226000803977160825e-01
3.838888713325380730e-01 -1.411563059587934710e-01
3.846755288557605068e-01 -1.609870162069768629e-01
3.854621863789829406e-01 -1.819838236267273812e-01
3.862488439022053188e-01 -2.040197750163899038e-01
3.870355014254277526e-01 -2.269503747933450111e-01
3.878221589486501863e-01 -2.506146850910254686e-01
3.886088164718725646e-01 -2.748364845529077671e-01
3.893954739950949984e-01 -2.994254447416444531e-01
3.901821315183174321e-01 -3.241783352913609750e-01
3.909687890415398104e-01 -3.488802393032176541e-01
3.917554465647622441e-01 -3.733058404019207188e-01
3.925421040879846779e-01 -3.972208103147812919e-01
3.933287616112070562e-01 -4.203833758991640801e-01
3.941154191344294899e-01 -4.425461192283426382e-01
3.949020766576519237e-01 -4.634581009381619765e-01
3.956887341808743019e-01 -4.828673646141586895e-01
3.964753917040967357e-01 -5.005238797970871234e-01
3.972620492273191140e-01 -5.161829559613109186e-01
3.980487067505415477e-01 -5.296091097596331565e-01
3.988353642737639815e-01 -5.405803468686616320e-01
3.996220217969863597e-01 -5.488927633094040637e-01
4.004086793202087935e-01 -5.543653513939299504e-01
4.011953368434312273e-01 -5.568448275315767138e-01
4.019819943666536055e-01 -5.562102833008946146e-01
4.027686518898760393e-01 -5.523774399467168417e-01
4.035553094130984730e-01 -5.453022706889534277e-01
4.043419669363208513e-01 -5.349837836339053077e-01
4.051286244595432851e-01 -5.214657534596776056e-01
4.059152819827657188e-01 -5.048372630514141868e-01
4.067019395059880971e-01 -4.852319311170529836e-01
4.074885970292105308e-01 -4.628258107480098804e-01
4.082752545524329646e-01 -4.378339802900059752e-01
4.090619120756553428e-01 -4.105059413868620277e-01
4.098485695988777766e-01 -3.811199898368178296e-01
4.106352271221001549e-01 -3.499767967068900809e-01
4.114218846453225886e-01 -3.173924861408224940e-01
4.122085421685450224e-01 -2.836915085053420826e-01
4.129951996917674006e-01 -2.491996364971845734e-01
4.137818572149898344e-01 -2.142373739402939625e-01
4.145685147382122682e-01 -1.791140635008086068e-01
4.153551722614346464e-01 -1.441229036977764721e-01
4.161418297846570802e-01 -1.095370490202342006e-01
4.169284873078795139e-01 -7.560686099344404720e-02
4.177151448311018922e-01 -4.255833627211391690e-02
4.185018023543243260e-01 -1.059262490734724782e-02
4.192884598775467597e-01 2.011346048825179977e-02
4.200751174007691380e-01 4.940616713371315250e-02
4.208617749239915717e-01 7.715294542940442923e-02
4.216484324472140055e-01 1.032402914873138400e-01
4.224350899704363838e-01 1.275715011067712901e-01
4.232217474936588175e-01 1.500645847821919787e-01
4.240084050168811958e-01 1.706505195587530999e-01
4.247950625401036295e-01 1.892719900607049421e-01
4.255817200633260633e-01 2.058827037695065698e-01
4.263683775865484415e-01 2.204473013334262710e-01
4.271550351097708753e-01 2.329418397866964696e-01
4.279416926329933091e-01 2.433547468250887302e-01
4.287283501562156873e-01 2.516881329989171245e-01
4.295150076794381211e-01 2.579592810211694953e-01
4.303016652026605549e-01 2.622021452099421168e-01
4.310883227258829331e-01 2.644686655287449284e-01
4.318749802491053669e-01 2.648297376993100638e-01
4.326616377723278006e-01 2.633756856470264029e-01
4.334482952955501789e-01 2.602161256154627011e-01
4.342349528187726126e-01 2.554791553282269589e-01
4.350216103419950464e-01 2.493098401649762597e-01
4.358082678652174247e-01 2.418680372753914121e-01
4.365949253884398584e-01 2.333256020978453638e-01
4.373815829116622367e-01 2.238630997203150397e-01
4.381682404348846704e-01 2.136661450024643916e-01
4.389548979581071042e-01 2.029215355659954589e-01
4.397415554813294825e-01 1.918133367057222038e-01
4.405282130045519162e-01 1.805190768279536506e-01
4.413148705277743500e-01 1.692062205365827410e-01
4.421015280509967282e-01 1.580290385357683292e-01
4.428881855742191620e-01 1.471259986603072889e-01
4.436748430974415958e-01 1.366177481847767883e-01
4.444615006206639740e-01 1.266057468261880814e-01
4.452481581438864078e-01 1.171715597869908976e-01
4.460348156671088415e-01 1.083767947417060284e-01
4.468214731903312198e-01 1.002636477505658430e-01
4.476081307135536536e-01 9.285599108875297603e-02
4.483947882367760318e-01 8.616091189859664823e-02
4.491814457599984656e-01 8.017060513163110080e-02
4.499681032832208993e-01 7.486451711624297900e-02
4.507547608064432776e-01 7.021164214695252426e-02
4.515414183296657114e-01 6.617285223922775295e-02
4.523280758528881451e-01 6.270317448852225084e-02
4.531147333761105234e-01 5.975393352287339255e-02
4.539013908993329571e-01 5.727469393980344492e-02
4.546880484225553909e-01 5.521495021221856092e-02
4.554747059457777691e-01 5.352552221724082848e-02
4.562613634690002029e-01 5.215965306692416092e-02
4.570480209922226367e-01 5.107380429116736842e-02
4.578346785154450149e-01 5.022815940771252485e-02
4.586213360386674487e-01 4.958686464509343139e-02
4.594079935618898825e-01 4.911804237092431968e-02
4.601946510851122607e-01 4.879362201753534301e-02
4.609813086083346945e-01 4.858902700574807554e-02
4.617679661315570727e-01 4.848276505499793387e-02
4.625546236547795065e-01 4.845596946057240118e-02
4.633412811780019402e-01 4.849193465437662276e-02
4.641279387012243185e-01 4.857566324781492639e-02
4.649145962244467523e-01 4.869346917080119574e-02
4.657012537476691860e-01 4.883264368795825483e-02
4.664879112708915643e-01 4.898121256795473499e-02
4.672745687941139980e-01 4.912777007837920706e-02
4.680612263173364318e-01 4.926139937666640378e-02
4.688478838405588101e-01 4.937167108549567196e-02
4.696345413637812438e-01 4.944871284395091493e-02