0.000000000000000000e+00 3.253563030770068032e-02
7.866575232224141392e-04 2.875133730023149425e-02
1.573315046444828278e-03 2.875133730023149425e-02
2.359972569667242309e-03 2.875133730023149425e-02
3.146630092889656557e-03 2.875133730023149425e-02
3.933287616112070804e-03 2.875133730023149425e-02
4.719945139334484618e-03 2.875133730023149425e-02
5.506602662556899300e-03 2.875133730023149425e-02
6.293260185779313114e-03 2.875133730023149425e-02
7.079917709001726928e-03 2.875133730023149425e-02
7.866575232224141609e-03 2.875133730023149425e-02
8.653232755446556290e-03 2.875133730023149425e-02
9.439890278668969237e-03 2.875133730023149425e-02
1.022654780189138392e-02 2.875133730023149425e-02
1.101320532511379860e-02 2.875133730023149425e-02
1.179986284833621155e-02 2.875133730023149425e-02
1.258652037155862623e-02 2.875133730023149425e-02
1.337317789478104091e-02 2.875133730023149425e-02
1.415983541800345386e-02 2.875133730023149425e-02
1.494649294122586854e-02 2.875133730023149425e-02
1.573315046444828322e-02 2.875133730023149425e-02
1.651980798767069616e-02 2.875133730023149425e-02
1.730646551089311258e-02 2.875133730023149425e-02
1.809312303411552553e-02 2.875133730023149425e-02
1.887978055733793847e-02 2.875133730023149425e-02
1.966643808056035489e-02 2.875133730023149425e-02
2.045309560378276784e-02 2.875133730023149425e-02
2.123975312700518078e-02 2.875133730023149425e-02
2.202641065022759720e-02 2.875133730023149425e-02
2.281306817345001015e-02 2.875133730023149425e-02
2.359972569667242309e-02 2.875133730023149425e-02
2.438638321989483951e-02 2.875133730023149425e-02
2.517304074311725245e-02 2.875133730023149425e-02
2.595969826633966540e-02 2.875133730023149425e-02
2.674635578956208182e-02 2.875133730023149425e-02
2.753301331278449476e-02 2.875133730023149425e-02
2.831967083600690771e-02 2.875133730023149425e-02
2.910632835922932413e-02 2.875133730023149425e-02
2.989298588245173707e-02 2.875133730023149425e-02
3.067964340567415002e-02 2.875133730023149425e-02
3.146630092889656644e-02 2.875133730023149425e-02
3.225295845211897938e-02 2.875133730023149425e-02
3.303961597534139233e-02 2.875133730023149425e-02
3.382627349856380528e-02 2.875133730023149425e-02
3.461293102178622516e-02 2.875133730023149425e-02
3.539958854500863811e-02 2.875133730023149425e-02
3.618624606823105105e-02 2.875133730023149425e-02
3.697290359145346400e-02 2.875133730023149425e-02
3.775956111467587695e-02 2.875133730023149425e-02
3.854621863789828989e-02 2.875133730023149425e-02
3.933287616112070978e-02 2.875133730023149425e-02
4.011953368434312273e-02 2.875133730023149425e-02
4.090619120756553567e-02 2.875133730023149425e-02
4.169284873078794862e-02 2.875133730023149425e-02
4.247950625401036157e-02 2.875133730023149425e-02
4.326616377723277451e-02 2.875133730023149425e-02
4.405282130045519440e-02 2.875133730023149425e-02
4.483947882367760734e-02 2.875133730023149425e-02
4.562613634690002029e-02 2.875133730023149425e-02
4.641279387012243324e-02 2.875133730023149425e-02
4.719945139334484618e-02 2.875133730023149425e-02
4.798610891656725913e-02 2.875133730023149425e-02
4.877276643978967902e-02 2.875133730023149425e-02
4.955942396301209196e-02 2.875133730023149425e-02
5.034608148623450491e-02 2.875133730023149425e-02
5.113273900945691786e-02 2.875133730023149425e-02
5.191939653267933080e-02 2.875133730023149425e-02
5.270605405590175069e-02 2.875133730023149425e-02
5.349271157912416363e-02 2.875133730023149425e-02
5.427936910234657658e-02 2.875133730023149425e-02
5.506602662556898953e-02 2.875133730023149425e-02
5.585268414879140247e-02 2.875133730023149425e-02
5.663934167201381542e-02 2.875133730023149425e-02
5.742599919523623531e-02 2.875133730023149425e-02
5.821265671845864825e-02 2.875133730023149425e-02
5.899931424168106120e-02 2.875133730023149425e-02
5.978597176490347415e-02 2.875133730023149425e-02
6.057262928812588709e-02 2.875133730023149425e-02
6.135928681134830004e-02 2.875133730023149425e-02
6.214594433457071992e-02 2.875133730023149425e-02
6.293260185779313287e-02 2.875133730023149425e-02
6.371925938101553888e-02 2.875133730023149425e-02
6.450591690423795876e-02 2.875133730023149425e-02
6.529257442746037865e-02 2.875133730023149425e-02
6.607923195068278466e-02 2.875133730023149425e-02
6.686588947390520454e-02 2.875133730023149425e-02
6.765254699712761055e-02 2.875133730023149425e-02
6.843920452035003044e-02 2.875133730023149425e-02
6.922586204357245032e-02 2.875133730023149425e-02
7.001251956679485633e-02 2.875133730023149425e-02
7.079917709001727621e-02 2.875133730023149425e-02
7.158583461323968222e-02 2.875133730023149425e-02
7.237249213646210211e-02 2.875133730023149425e-02
7.315914965968450812e-02 2.875133730023149425e-02
7.394580718290692800e-02 2.875133730023149425e-02
7.473246470612934789e-02 2.875133730023149425e-02
7.551912222935175389e-02 2.875133730023149425e-02
7.630577975257417378e-02 2.875133730023149425e-02
7.709243727579657979e-02 2.875133730023149425e-02
7.787909479901899967e-02 2.875133730023149425e-02
7.866575232224141956e-02 2.875133730023149425e-02
7.945240984546382557e-02 2.875133730023149425e-02
8.023906736868624545e-02 2.875133730023149425e-02
8.102572489190865146e-02 2.875133730023149425e-02
8.181238241513107134e-02 2.875133730023149425e-02
8.259903993835349123e-02 2.875133730023149425e-02
8.338569746157589724e-02 2.875133730023149425e-02
8.417235498479831712e-02 2.875133730023149425e-02
8.495901250802072313e-02 2.875133730023149425e-02
8.574567003124314302e-02 2.875133730023149425e-02
8.653232755446554902e-02 2.875133730023149425e-02
8.731898507768796891e-02 2.875133730023149425e-02
8.810564260091038880e-02 2.875133730023149425e-02
8.889230012413279480e-02 2.875133730023149425e-02
8.967895764735521469e-02 2.875133730023149425e-02
9.046561517057762070e-02 2.875133730023149425e-02
9.125227269380004058e-02 2.875133730023149425e-02
9.203893021702246047e-02 2.875133730023149425e-02
9.282558774024486647e-02 2.875133730023149425e-02
9.361224526346728636e-02 2.875133730023149425e-02
9.439890278668969237e-02 2.875133730023149425e-02
9.518556030991211225e-02 2.875133730023149425e-02
9.597221783313451826e-02 2.875133730023149425e-02
9.675887535635693815e-02 2.875133730023149425e-02
9.754553287957935803e-02 2.875133730023149425e-02
9.833219040280176404e-02 2.875133730023149425e-02
9.911884792602418393e-02 2.875133730023149425e-02
9.990550544924658993e-02 2.875133730023149425e-02
1.006921629724690098e-01 2.875133730023149425e-02
1.014788204956914297e-01 2.875133730023149425e-02
1.022654780189138357e-01 2.875133730023149425e-02
1.030521355421362556e-01 2.875133730023149425e-02
1.038387930653586616e-01 2.875133730023149425e-02
1.046254505885810815e-01 2.875133730023149425e-02
1.054121081118035014e-01 2.875133730023149425e-02
1.061987656350259074e-01 2.875133730023149425e-02
1.069854231582483273e-01 2.875133730023149425e-02
1.077720806814707333e-01 2.875133730023149425e-02
1.085587382046931532e-01 2.875133730023149425e-02
1.093453957279155592e-01 2.875133730023149425e-02
1.101320532511379791e-01 2.875133730023149425e-02
1.109187107743603989e-01 2.875133730023149425e-02
1.117053682975828049e-01 2.875133730023149425e-02
1.124920258208052248e-01 2.875133730023149425e-02
1.132786833440276308e-01 2.875133730023149425e-02
1.140653408672500507e-01 2.875133730023149425e-02
1.148519983904724706e-01 2.875133730023149425e-02
1.156386559136948766e-01 2.875133730023149425e-02
1.164253134369172965e-01 2.875133730023149425e-02
1.172119709601397025e-01 2.875133730023149425e-02
1.179986284833621224e-01 2.875133730023149425e-02
1.187852860065845284e-01 2.875133730023149425e-02
1.195719435298069483e-01 2.875133730023149425e-02
1.203586010530293682e-01 2.875133730023149425e-02
1.211452585762517742e-01 2.875133730023149425e-02
1.219319160994741941e-01 2.875133730023149425e-02
1.227185736226966001e-01 2.875133730023149425e-02
1.235052311459190200e-01 2.875133730023149425e-02
1.242918886691414398e-01 2.875133730023149425e-02
1.250785461923638597e-01 2.875133730023149425e-02
1.258652037155862657e-01 2.875133730023149425e-02
1.266518612388086718e-01 2.875133730023149425e-02
1.274385187620310778e-01 2.875133730023149425e-02
1.282251762852535115e-01 2.875133730023149425e-02
1.290118338084759175e-01 2.875133730023149425e-02
1.297984913316983235e-01 2.875133730023149425e-02
1.305851488549207573e-01 2.875133730023149425e-02
1.313718063781431633e-01 2.875133730023149425e-02
1.321584639013655693e-01 2.875133730023149425e-02
1.329451214245880031e-01 2.875133730023149425e-02
1.337317789478104091e-01 2.875133730023149425e-02
1.345184364710328151e-01 2.875133730023149425e-02
1.353050939942552211e-01 2.875133730023149425e-02
1.360917515174776549e-01 2.875133730023149425e-02
1.368784090407000609e-01 2.875133730023149425e-02
1.376650665639224669e-01 2.875133730023149425e-02
1.384517240871449006e-01 2.875133730023149425e-02
1.392383816103673067e-01 2.875133730023149425e-02
1.400250391335897127e-01 2.875133730023149425e-02
1.408116966568121187e-01 2.875133730023149425e-02
1.415983541800345524e-01 2.875133730023149425e-02
1.423850117032569584e-01 2.875133730023149425e-02
1.431716692264793644e-01 2.875133730023149425e-02
1.439583267497017982e-01 2.875133730023149425e-02
1.447449842729242042e-01 2.875133730023149425e-02
1.455316417961466102e-01 2.875133730023149425e-02
1.463182993193690162e-01 2.875133730023149425e-02
1.471049568425914500e-01 2.875133730023149425e-02
1.478916143658138560e-01 2.875133730023149425e-02
1.486782718890362620e-01 2.875133730023149425e-02
1.494649294122586958e-01 2.875133730023149425e-02
1.502515869354811018e-01 2.875133730023149425e-02
1.510382444587035078e-01 2.875133730023149425e-02
1.518249019819259416e-01 2.875133730023149425e-02
1.526115595051483476e-01 2.875133730023149425e-02
1.533982170283707536e-01 2.875133730023149425e-02
1.541848745515931596e-01 2.875133730023149425e-02
1.549715320748155933e-01 2.875133730023149425e-02
1.557581895980379993e-01 2.875133730023149425e-02
1.565448471212604054e-01 2.875133730023149425e-02
1.573315046444828391e-01 2.875133730023149425e-02
1.581181621677052451e-01 2.875133730023149425e-02
1.589048196909276511e-01 2.875133730023149425e-02
1.596914772141500571e-01 2.875133730023149425e-02
1.604781347373724909e-01 2.875133730023149425e-02
1.612647922605948969e-01 2.875133730023149425e-02
1.620514497838173029e-01 2.875133730023149425e-02
1.628381073070397367e-01 2.875133730023149425e-02
1.636247648302621427e-01 2.875133730023149425e-02
1.644114223534845487e-01 2.875133730023149425e-02
1.651980798767069825e-01 2.875133730023149425e-02
1.659847373999293885e-01 2.875133730023149425e-02
1.667713949231517945e-01 2.875133730023149425e-02
1.675580524463742005e-01 2.875133730023149425e-02
1.683447099695966342e-01 2.875133730023149425e-02
1.691313674928190403e-01 2.875133730023149425e-02
1.699180250160414463e-01 2.875133730023149425e-02
1.707046825392638800e-01 2.875133730023149425e-02
1.714913400624862860e-01 2.875133730023149425e-02
1.722779975857086920e-01 2.875133730023149425e-02
1.730646551089310980e-01 2.875133730023149425e-02
1.738513126321535318e-01 2.875133730023149425e-02
1.746379701553759378e-01 2.875133730023149425e-02
1.754246276785983438e-01 2.875133730023149425e-02
1.762112852018207776e-01 2.875133730023149425e-02
1.769979427250431836e-01 2.875133730023149425e-02
1.777846002482655896e-01 2.875133730023149425e-02
1.785712577714880234e-01 2.875133730023149425e-02
1.793579152947104294e-01 2.875133730023149425e-02
1.801445728179328354e-01 2.875133730023149425e-02
1.809312303411552414e-01 2.875133730023149425e-02
1.817178878643776752e-01 2.875133730023149425e-02
1.825045453876000812e-01 2.875133730023149425e-02
1.832912029108224872e-01 2.875133730023149425e-02
1.840778604340449209e-01 2.875133730023149425e-02
1.848645179572673269e-01 2.875133730023149425e-02
1.856511754804897329e-01 2.875133730023149425e-02
1.864378330037121390e-01 2.875133730023149425e-02
1.872244905269345727e-01 2.875133730023149425e-02
1.880111480501569787e-01 2.875133730023149425e-02
1.887978055733793847e-01 2.875133730023149425e-02
1.895844630966018185e-01 2.875133730023149425e-02
1.903711206198242245e-01 2.875133730023149425e-02
1.911577781430466305e-01 2.875133730023149425e-02
1.919444356662690365e-01 2.875133730023149425e-02
1.927310931894914703e-01 2.875133730023149425e-02
1.935177507127138763e-01 2.875133730023149425e-02
1.943044082359362823e-01 2.875133730023149425e-02
1.950910657591587161e-01 2.875133730023149425e-02
1.958777232823811221e-01 2.875133730023149425e-02
1.966643808056035281e-01 2.875133730023149425e-02
1.974510383288259618e-01 2.875133730023149425e-02
1.982376958520483679e-01 2.875133730023149425e-02
1.990243533752707739e-01 2.875133730023149425e-02
1.998110108984931799e-01 2.875133730023149425e-02
2.005976684217156136e-01 2.875133730023149425e-02
2.013843259449380196e-01 2.875133730023149425e-02
2.021709834681604256e-01 2.875133730023149425e-02
2.029576409913828594e-01 2.875133730023149425e-02
2.037442985146052654e-01 2.875133730023149425e-02
2.045309560378276714e-01 2.875133730023149425e-02
2.053176135610500774e-01 2.875133730023149425e-02
2.061042710842725112e-01 2.875133730023149425e-02
2.068909286074949172e-01 2.875133730023149425e-02
2.076775861307173232e-01 2.875133730023149425e-02
2.084642436539397570e-01 2.875133730023149425e-02
2.092509011771621630e-01 2.875133730023149425e-02
2.100375587003845690e-01 2.875133730023149425e-02
2.108242162236070028e-01 2.875133730023149425e-02
2.116108737468294088e-01 2.875133730023149425e-02
2.123975312700518148e-01 2.875133730023149425e-02
2.131841887932742208e-01 2.875133730023149425e-02
2.139708463164966545e-01 2.875133730023149425e-02
2.147575038397190605e-01 2.875133730023149425e-02
2.155441613629414666e-01 2.875133730023149425e-02
2.163308188861639003e-01 2.875133730023149425e-02
2.171174764093863063e-01 2.875133730023149425e-02
2.179041339326087123e-01 2.875133730023149425e-02
2.186907914558311183e-01 2.875133730023149425e-02
2.194774489790535521e-01 2.875133730023149425e-02
2.202641065022759581e-01 2.875133730023149425e-02
2.210507640254983641e-01 2.875133730023149425e-02
2.218374215487207979e-01 2.875133730023149425e-02
2.226240790719432039e-01 2.875133730023149425e-02
2.234107365951656099e-01 2.875133730023149425e-02
2.241973941183880159e-01 2.875133730023149425e-02
2.249840516416104497e-01 2.875133730023149425e-02
2.257707091648328557e-01 2.875133730023149425e-02
2.265573666880552617e-01 2.875133730023149425e-02
2.273440242112776954e-01 2.875133730023149425e-02
2.281306817345001015e-01 2.875133730023149425e-02
2.289173392577225075e-01 2.875133730023149425e-02
2.297039967809449412e-01 2.875133730023149425e-02
2.304906543041673472e-01 2.875133730023149425e-02
2.312773118273897532e-01 2.875133730023149425e-02
2.320639693506121592e-01 2.875133730023149425e-02
2.328506268738345930e-01 2.875133730023149425e-02
2.336372843970569990e-01 2.875133730023149425e-02
2.344239419202794050e-01 2.875133730023149425e-02
2.352105994435018388e-01 2.875133730023149425e-02
2.359972569667242448e-01 2.875133730023149425e-02
2.367839144899466508e-01 2.875133730023149425e-02
2.375705720131690568e-01 2.875133730023149425e-02
2.383572295363914906e-01 2.875133730023149425e-02
2.391438870596138966e-01 2.875133730023149425e-02
2.399305445828363026e-01 2.875133730023149425e-02
2.407172021060587364e-01 2.875133730023149425e-02
2.415038596292811424e-01 2.875133730023149425e-02
2.422905171525035484e-01 2.875133730023149425e-02
2.430771746757259821e-01 2.875133730023149425e-02
2.438638321989483881e-01 2.875133730023149425e-02
2.446504897221707941e-01 2.875133730023149425e-02
2.454371472453932002e-01 2.875133730023149425e-02
2.462238047686156339e-01 2.875133730023149425e-02
2.470104622918380399e-01 2.875133730023149425e-02
2.477971198150604459e-01 2.875133730023149425e-02
2.485837773382828797e-01 2.875133730023149425e-02
2.493704348615052857e-01 2.875133730023149425e-02
2.501570923847277195e-01 2.875133730023171630e-02
2.509437499079500977e-01 2.875133730023171630e-02
2.517304074311725315e-01 2.875133730023260448e-02
2.525170649543949652e-01 2.875133730023327061e-02
2.533037224776173435e-01 2.875133730023904377e-02
2.540903800008397773e-01 2.875133730024370671e-02
2.548770375240621555e-01 2.875133730027634726e-02
2.556636950472845893e-01 2.875133730030476897e-02
2.564503525705070230e-01 2.875133730047885194e-02
2.572370100937294013e-01 2.875133730063383908e-02
2.580236676169518351e-01 2.875133730146939293e-02
2.588103251401742688e-01 2.875133730224099793e-02
2.595969826633966471e-01 2.875133730587231540e-02
2.603836401866190808e-01 2.875133730936996201e-02
2.611702977098415146e-01 2.875133732368917450e-02
2.619569552330638929e-01 2.875133733813362014e-02
2.627436127562863266e-01 2.875133738944857242e-02
2.635302702795087604e-01 2.875133744388858048e-02
2.643169278027311386e-01 2.875133761140524769e-02
2.651035853259535724e-01 2.875133779908267684e-02
2.658902428491760062e-01 2.875133829913734118e-02
2.666769003723983844e-01 2.875133889279002375e-02
2.674635578956208182e-01 2.875134026616454896e-02
2.682502154188431964e-01 2.875134199676976365e-02
2.690368729420656302e-01 2.875134550017754975e-02
2.698235304652880640e-01 2.875135017879770771e-02
2.706101879885104422e-01 2.875135859198918453e-02
2.713968455117328760e-01 2.875137042130426757e-02
2.721835030349553097e-01 2.875138975957125531e-02
2.729701605581776880e-01 2.875141802910485822e-02
2.737568180814001217e-01 2.875146128761807418e-02
2.745434756046225555e-01 2.875152589947727044e-02
2.753301331278449338e-01 2.875162117733953693e-02
2.761167906510673675e-01 2.875176398415968393e-02
2.769034481742898013e-01 2.875197132780993314e-02
2.776901056975121795e-01 2.875227905435084885e-02
2.784767632207346133e-01 2.875272342187740193e-02
2.792634207439570471e-01 2.875337251304643793e-02
2.800500782671794253e-01 2.875430542663304223e-02
2.808367357904018591e-01 2.875564636840222121e-02
2.816233933136242373e-01 2.875755839720373075e-02
2.824100508368466711e-01 2.876026868697079131e-02
2.831967083600691049e-01 2.876409155598835810e-02
2.839833658832914831e-01 2.876944536442804790e-02
2.847700234065139169e-01 2.877690692963863484e-02
2.855566809297363506e-01 2.878723782938918951e-02
2.863433384529587289e-01 2.880146389648685634e-02
2.871299959761811627e-01 2.882093437309052320e-02
2.879166534994035964e-01 2.884742878156898449e-02
2.887033110226259747e-01 2.888326404879637543e-02
2.894899685458484084e-01 2.893144633230115836e-02
2.902766260690708422e-01 2.899583792709958807e-02
2.910632835922932204e-01 2.908137231911878118e-02
2.918499411155156542e-01 2.919430272163214823e-02
2.926365986387380325e-01 2.934248928495475361e-02
2.934232561619604662e-01 2.953575025626942185e-02
2.942099136851829000e-01 2.978623460836771208e-02
2.949965712084052782e-01 3.010886980464699825e-02
2.957832287316277120e-01 3.052183910446459869e-02
2.965698862548501458e-01 3.104709795548354911e-02
2.973565437780725240e-01 3.171094043756106373e-02
2.981432013012949578e-01 3.254455737335626431e-02
2.989298588245173915e-01 3.358461228539666443e-02
2.997165163477397698e-01 3.487378735397306251e-02
3.005031738709622036e-01 3.646125576223391285e-02
3.012898313941846373e-01 3.840307903023831848e-02
3.020764889174070156e-01 4.076244754888413979e-02
3.028631464406294493e-01 4.360972885398273213e-02
3.036498039638518831e-01 4.702228729507917926e-02
3.044364614870742614e-01 5.108398203953790073e-02
3.052231190102966951e-01 5.588431645065239373e-02
3.060097765335190734e-01 6.151718184956500579e-02
3.067964340567415071e-01 6.807912791193615476e-02
3.075830915799639409e-01 7.566715060917372782e-02
3.083697491031863192e-01 8.437597904050497810e-02
3.091564066264087529e-01 9.429482952483092539e-02
3.099430641496311867e-01 1.055037152444400217e-01
3.107297216728535649e-01 1.180693146684248518e-01
3.115163791960759987e-01 1.320405186790456487e-01
3.123030367192984325e-01 1.474437804328041501e-01
3.130896942425208107e-01 1.642784250624798048e-01
3.138763517657432445e-01 1.825120983906967087e-01
3.146630092889656782e-01 2.020766085182070793e-01
3.154496668121880565e-01 2.228643672035761636e-01
3.162363243354104902e-01 2.447256789305847224e-01
3.170229818586329240e-01 2.674671695900270318e-01
3.178096393818553023e-01 2.908515117426018204e-01
3.185962969050777360e-01 3.145987068226503425e-01
3.193829544283001143e-01 3.383890531823114944e-01
3.201696119515225480e-01 3.618678715594210171e-01
3.209562694747449818e-01 3.846520271716913353e-01
3.217429269979673601e-01 4.063381658853779665e-01
3.225295845211897938e-01 4.265124835129048275e-01
3.233162420444122276e-01 4.447617933094576426e-01
3.241028995676346058e-01 4.606855373786664654e-01
3.248895570908570396e-01 4.739083116583897581e-01
3.256762146140794734e-01 4.840924158433481672e-01
3.264628721373018516e-01 4.909499304772189099e-01
3.272495296605242854e-01 4.942537219207325805e-01
3.280361871837467191e-01 4.938469020605367188e-01
3.288228447069690974e-01 4.896502350728295649e-01
3.296095022301915312e-01 4.816670677373355858e-01
3.303961597534139649e-01 4.699854926706286129e-01
3.311828172766363432e-01 4.547775482113061152e-01
3.319694747998587769e-01 4.362953817792138977e-01
3.327561323230811552e-01 4.148644837469519508e-01
3.335427898463035890e-01 3.908742388781689669e-01
3.343294473695260227e-01 3.647661205289844943e-01
3.351161048927484010e-01 3.370200579897348891e-01
3.359027624159708347e-01 3.081395344992792218e-01
3.366894199391932685e-01 2.786360376184366938e-01
3.374760774624156467e-01 2.490135517589655567e-01
3.382627349856380805e-01 2.197537356312670997e-01
3.390493925088605143e-01 1.913023874071611008e-01
3.398360500320828925e-01 1.640577295144012293e-01
3.406227075553053263e-01 1.383609593906089952e-01
3.414093650785277601e-01 1.144893383456471181e-01
3.421960226017501383e-01 9.265200858135647088e-02
3.429826801249725721e-01 7.298857843955031122e-02
3.437693376481950058e-01 5.557034917043446320e-02
3.445559951714173841e-01 4.040397340687729155e-02
3.453426526946398178e-01 2.743723169214606905e-02
3.461293102178621961e-01 1.656650538269932582e-02
3.469159677410846299e-01 7.645502198213138811e-03
3.477026252643070636e-01 4.947717785670491253e-04
3.484892827875294419e-01 -5.088477512203870567e-03
3.492759403107518756e-01 -9.320704607475804870e-03
3.500625978339743094e-01 -1.242288721934059481e-02
3.508492553571966877e-01 -1.461223582258053266e-02
3.516359128804191214e-01 -1.609504035080056017e-02
3.524225704036415552e-01 -1.706080154542066740e-02
3.532092279268639334e-01 -1.767775881520650127e-02
3.539958854500863672e-01 -1.808984381955314191e-02
3.547825429733088010e-01 -1.841499810610680576e-02
3.555692004965311792e-01 -1.874475104036776862e-02
3.563558580197536130e-01 -1.914492557971003706e-02
3.571425155429760467e-01 -1.965727632371472300e-02
3.579291730661984250e-01 -2.030186293392255426e-02
3.587158305894208588e-01 -2.107996196613637352e-02
3.595024881126432370e-01 -2.197731559273408131e-02
3.602891456358656708e-01 -2.296751036624167241e-02
3.610758031590881045e-01 -2.401534298058716210e-02
3.618624606823104828e-01 -2.508002202819614723e-02
3.626491182055329165e-01 -2.611808719775488008e-02
3.634357757287553503e-01 -2.708596713434174852e-02
3.642224332519777286e-01 -2.794213003408607676e-02
3.650090907752001623e-01 -2.864878693675920740e-02
3.657957482984225961e-01 -2.917315472507331364e-02
3.665824058216449743e-01 -2.948831332397938709e-02
3.673690633448674081e-01 -2.957368370760893317e-02
3.681557208680898419e-01 -2.941518160917577784e-02
3.689423783913122201e-01 -2.900512046560277390e-02
3.697290359145346539e-01 -2.834192599381257782e-02
3.705156934377570321e-01 -2.742972362983842061e-02
3.713023509609794659e-01 -2.627787564758854444e-02
3.720890084842018997e-01 -2.490052528263420051e-02
3.728756660074242779e-01 -2.331618723585437980e-02
3.736623235306467117e-01 -2.154743222398347591e-02
3.744489810538691454e-01 -1.962069460304904922e-02
3.752356385770915237e-01 -1.756620277697140686e-02
3.760222961003139575e-01 -1.541803653975748478e-02
3.768089536235363912e-01 -1.321430674608925493e-02
3.775956111467587695e-01 -1.099743587374990561e-02
3.783822686699812032e-01 -8.814499038292122890e-03
3.791689261932036370e-01 -6.717608325016222182e-03
3.799555837164260153e-01 -4.764282434596256444e-03
3.807422412396484490e-01 -3.017769852319829305e-03
3.815288987628708828e-01 -1.547283291439160990e-03
3.823155562860932610e-01 -4.281277942603800568e-04
3.831022138093156948e-01 2.583309982671089244e-04
3.838888713325380730e-01 4.248744940718029994e-04
3.846755288557605068e-01 -2.117155238601231559e-05
3.854621863789829406e-01 -1.177332043767909120e-03
3.862488439022053188e-01 -3.145177672866594776e-03
3.870355014254277526e-01 -6.029311078349031128e-03
3.878221589486501863e-01 -9.936167264515627373e-03
3.886088164718725646e-01 -1.497260309002357292e-02
3.893954739950949984e-01 -2.124433027976102561e-02
3.901821315183174321e-01 -2.885417447204263741e-02
3.909687890415398104e-01 -3.790019167972857872e-02
3.917554465647622441e-01 -4.847362060443471954e-02
3.925421040879846779e-01 -6.065669904363835130e-02
3.933287616112070562e-01 -7.452033138803570989e-02
3.941154191344294899e-01 -9.012161042403776801e-02
3.949020766576519237e-01 -1.075012049320086538e-01
3.956887341808743019e-01 -1.266805930704103522e-01
3.964753917040967357e-01 -1.476591685419200717e-01
3.972620492273191140e-01 -1.704112243201765242e-01
3.980487067505415477e-01 -1.948828856706114054e-01
3.988353642737639815e-01 -2.209890186931250389e-01
3.996220217969863597e-01 -2.486102153172623508e-01
4.004086793202087935e-01 -2.775899606398524178e-01
4.011953368434312273e-01 -3.077321235214438566e-01
4.019819943666536055e-01 -3.387989444601466893e-01
4.027686518898760393e-01 -3.705096971027861397e-01
4.035553094130984730e-01 -4.025402414025459619e-01
4.043419669363208513e-01 -4.345236533155614200e-01
4.051286244595432851e-01 -4.660521569580073908e-01
4.059152819827657188e-01 -4.966805317382958496e-01
4.067019395059880971e-01 -5.259311321917452542e-01
4.074885970292105308e-01 -5.533006065248726735e-01
4.082752545524329646e-01 -5.782683363003155996e-01
4.090619120756553428e-01 -6.003065452659114287e-01
4.098485695988777766e-01 -6.188919151291308873e-01
4.106352271221001549e-01 -6.335184673277577394e-01
4.114218846453225886e-01 -6.437113716405152841e-01
4.122085421685450224e-01 -6.490412527030466894e-01
4.129951996917674006e-01 -6.491385090791137458e-01
4.137818572149898344e-01 -6.437070908984690032e-01
4.145685147382122682e-01 -6.325371567161780506e-01
4.153551722614346464e-01 -6.155160295086676836e-01
4.161418297846570802e-01 -5.926369076547769454e-01
4.169284873078795139e-01 -5.640048615883163086e-01
4.177151448311018922e-01 -5.298396962023849133e-01
4.185018023543243260e-01 -4.904754214308331139e-01
4.192884598775467597e-01 -4.463561680457888148e-01
4.200751174007691380e-01 -3.980285799851329687e-01
4.208617749239915717e-01 -3.461308229563414551e-01
4.216484324472140055e-01 -2.913785337849882362e-01
4.224350899704363838e-01 -2.345481436906323713e-01
4.232217474936588175e-01 -1.764581501294200105e-01
4.240084050168811958e-01 -1.179489979165642133e-01
4.247950625401036295e-01 -5.986228975223772952e-02
4.255817200633260633e-01 -3.020061477263191740e-03
4.263683775865484415e-01 5.179513727789109012e-02
4.271550351097708753e-01 1.038586569957495875e-01
4.279416926329933091e-01 1.525200418747754139e-01
4.287283501562156873e-01 1.972166898425182779e-01
4.295150076794381211e-01 2.374844801894271384e-01
4.303016652026605549e-01 2.729651033623159417e-01
4.310883227258829331e-01 3.034099796039890773e-01
4.318749802491053669e-01 3.286807868480638994e-01
4.326616377723278006e-01 3.487467420639780435e-01
4.334482952955501789e-01 3.636789176791652700e-01
4.342349528187726126e-01 3.736419663692991389e-01
4.350216103419950464e-01 3.788836943309996652e-01
4.358082678652174247e-01 3.797229830194044364e-01
4.365949253884398584e-01 3.765365925444690287e-01
4.373815829116622367e-01 3.697453927634044568e-01
4.381682404348846704e-01 3.598005073844472435e-01
4.389548979581071042e-01 3.471698480858034230e-01
4.397415554813294825e-01 3.323254628064320482e-01
4.405282130045519162e-01 3.157320427292908960e-01
4.413148705277743500e-01 2.978368440922383176e-01
4.421015280509967282e-01 2.790611999451060310e-01
4.428881855742191620e-01 2.597937520956716817e-01
4.436748430974415958e-01 2.403854173549500040e-01
4.444615006206639740e-01 2.211460357911689822e-01
4.452481581438864078e-01 2.023426039291476020e-01
4.460348156671088415e-01 1.841989413848774682e-01
4.468214731903312198e-01 1.668966199097181580e-01
4.476081307135536536e-01 1.505769034731196943e-01
4.483947882367760318e-01 1.353435185715601285e-01
4.491814457599984656e-01 1.212660114873347350e-01
4.499681032832208993e-01 1.083834998119921345e-01
4.507547608064432776e-01 9.670860417230686679e-02
4.515414183296657114e-01 8.623141002890233331e-02
4.523280758528881451e-01 7.692332977596771926e-02
4.531147333761105234e-01 6.874073416949921800e-02
4.539013908993329571e-01 6.162829369667344181e-02
4.546880484225553909e-01 5.552197150529014635e-02
4.554747059457777691e-01 5.035166145433045415e-02
4.562613634690002029e-01 4.604344489017897502e-02
4.570480209922226367e-01 4.252149407599437048e-02
4.578346785154450149e-01 3.970965332088760569e-02
4.586213360386674487e-01 3.753273001690260458e-02
4.594079935618898825e-01 3.591752440163342719e-02
4.601946510851122607e-01 3.479364581534105660e-02
4.609813086083346945e-01 3.409415282051919682e-02
4.617679661315570727e-01 3.375604455305269980e-02
4.625546236547795065e-01 3.372062452989266212e-02
4.633412811780019402e-01 3.393376509593681867e-02
4.641279387012243185e-01 3.434608543265071923e-02
4.649145962244467523e-01 3.491304967937880477e-02
4.657012537476691860e-01 3.559498800439642174e-02
4.664879112708915643e-01 3.635705611331618847e-02
4.672745687941139980e-01 3.716912063632693553e-02
4.680612263173364318e-01 3.800558771502671185e-02
4.688478838405588101e-01 3.884516438317753284e-02
4.696345413637812438e-01 3.967056912578970085e-02