0.000000000000000000e+00 -2.997290355325827882e-01
7.866575232224141392e-04 -2.975351082556153548e-01
1.573315046444828278e-03 -2.975351082556153548e-01
2.359972569667242309e-03 -2.975351082556153548e-01
3.146630092889656557e-03 -2.975351082556153548e-01
3.933287616112070804e-03 -2.975351082556153548e-01
4.719945139334484618e-03 -2.975351082556153548e-01
5.506602662556899300e-03 -2.975351082556153548e-01
6.293260185779313114e-03 -2.975351082556153548e-01
7.079917709001726928e-03 -2.975351082556153548e-01
7.866575232224141609e-03 -2.975351082556153548e-01
8.653232755446556290e-03 -2.975351082556153548e-01
9.439890278668969237e-03 -2.975351082556153548e-01
1.022654780189138392e-02 -2.975351082556153548e-01
1.101320532511379860e-02 -2.975351082556153548e-01
1.179986284833621155e-02 -2.975351082556153548e-01
1.258652037155862623e-02 -2.975351082556153548e-01
1.337317789478104091e-02 -2.975351082556153548e-01
1.415983541800345386e-02 -2.975351082556153548e-01
1.494649294122586854e-02 -2.975351082556153548e-01
1.573315046444828322e-02 -2.975351082556153548e-01
1.651980798767069616e-02 -2.975351082556153548e-01
1.730646551089311258e-02 -2.975351082556153548e-01
1.809312303411552553e-02 -2.975351082556153548e-01
1.887978055733793847e-02 -2.975351082556153548e-01
1.966643808056035489e-02 -2.975351082556153548e-01
2.045309560378276784e-02 -2.975351082556153548e-01
2.123975312700518078e-02 -2.975351082556153548e-01
2.202641065022759720e-02 -2.975351082556153548e-01
2.281306817345001015e-02 -2.975351082556153548e-01
2.359972569667242309e-02 -2.975351082556153548e-01
2.438638321989483951e-02 -2.975351082556153548e-01
2.517304074311725245e-02 -2.975351082556153548e-01
2.595969826633966540e-02 -2.975351082556153548e-01
2.674635578956208182e-02 -2.975351082556153548e-01
2.753301331278449476e-02 -2.975351082556153548e-01
2.831967083600690771e-02 -2.975351082556153548e-01
2.910632835922932413e-02 -2.975351082556153548e-01
2.989298588245173707e-02 -2.975351082556153548e-01
3.067964340567415002e-02 -2.975351082556153548e-01
3.146630092889656644e-02 -2.975351082556153548e-01
3.225295845211897938e-02 -2.975351082556153548e-01
3.303961597534139233e-02 -2.975351082556153548e-01
3.382627349856380528e-02 -2.975351082556153548e-01
3.461293102178622516e-02 -2.975351082556153548e-01
3.539958854500863811e-02 -2.975351082556153548e-01
3.618624606823105105e-02 -2.975351082556153548e-01
3.697290359145346400e-02 -2.975351082556153548e-01
3.775956111467587695e-02 -2.975351082556153548e-01
3.854621863789828989e-02 -2.975351082556153548e-01
3.933287616112070978e-02 -2.975351082556153548e-01
4.011953368434312273e-02 -2.975351082556153548e-01
4.090619120756553567e-02 -2.975351082556153548e-01
4.169284873078794862e-02 -2.975351082556153548e-01
4.247950625401036157e-02 -2.975351082556153548e-01
4.326616377723277451e-02 -2.975351082556153548e-01
4.405282130045519440e-02 -2.975351082556153548e-01
4.483947882367760734e-02 -2.975351082556153548e-01
4.562613634690002029e-02 -2.975351082556153548e-01
4.641279387012243324e-02 -2.975351082556153548e-01
4.719945139334484618e-02 -2.975351082556153548e-01
4.798610891656725913e-02 -2.975351082556153548e-01
4.877276643978967902e-02 -2.975351082556153548e-01
4.955942396301209196e-02 -2.975351082556153548e-01
5.034608148623450491e-02 -2.975351082556153548e-01
5.113273900945691786e-02 -2.975351082556153548e-01
5.191939653267933080e-02 -2.975351082556153548e-01
5.270605405590175069e-02 -2.975351082556153548e-01
5.349271157912416363e-02 -2.975351082556153548e-01
5.427936910234657658e-02 -2.975351082556153548e-01
5.506602662556898953e-02 -2.975351082556153548e-01
5.585268414879140247e-02 -2.975351082556153548e-01
5.663934167201381542e-02 -2.975351082556153548e-01
5.742599919523623531e-02 -2.975351082556153548e-01
5.821265671845864825e-02 -2.975351082556153548e-01
5.899931424168106120e-02 -2.975351082556153548e-01
5.978597176490347415e-02 -2.975351082556153548e-01
6.057262928812588709e-02 -2.975351082556153548e-01
6.135928681134830004e-02 -2.975351082556153548e-01
6.214594433457071992e-02 -2.975351082556153548e-01
6.293260185779313287e-02 -2.975351082556153548e-01
6.371925938101553888e-02 -2.975351082556153548e-01
6.450591690423795876e-02 -2.975351082556153548e-01
6.529257442746037865e-02 -2.975351082556153548e-01
6.607923195068278466e-02 -2.975351082556153548e-01
6.686588947390520454e-02 -2.975351082556153548e-01
6.765254699712761055e-02 -2.975351082556153548e-01
6.843920452035003044e-02 -2.975351082556153548e-01
6.922586204357245032e-02 -2.975351082556153548e-01
7.001251956679485633e-02 -2.975351082556153548e-01
7.079917709001727621e-02 -2.975351082556153548e-01
7.158583461323968222e-02 -2.975351082556153548e-01
7.237249213646210211e-02 -2.975351082556153548e-01
7.315914965968450812e-02 -2.975351082556153548e-01
7.394580718290692800e-02 -2.975351082556153548e-01
7.473246470612934789e-02 -2.975351082556153548e-01
7.551912222935175389e-02 -2.975351082556153548e-01
7.630577975257417378e-02 -2.975351082556153548e-01
7.709243727579657979e-02 -2.975351082556153548e-01
7.787909479901899967e-02 -2.975351082556153548e-01
7.866575232224141956e-02 -2.975351082556153548e-01
7.945240984546382557e-02 -2.975351082556153548e-01
8.023906736868624545e-02 -2.975351082556153548e-01
8.102572489190865146e-02 -2.975351082556153548e-01
8.181238241513107134e-02 -2.975351082556153548e-01
8.259903993835349123e-02 -2.975351082556153548e-01
8.338569746157589724e-02 -2.975351082556153548e-01
8.417235498479831712e-02 -2.975351082556153548e-01
8.495901250802072313e-02 -2.975351082556153548e-01
8.574567003124314302e-02 -2.975351082556153548e-01
8.653232755446554902e-02 -2.975351082556153548e-01
8.731898507768796891e-02 -2.975351082556153548e-01
8.810564260091038880e-02 -2.975351082556153548e-01
8.889230012413279480e-02 -2.975351082556153548e-01
8.967895764735521469e-02 -2.975351082556153548e-01
9.046561517057762070e-02 -2.975351082556153548e-01
9.125227269380004058e-02 -2.975351082556153548e-01
9.203893021702246047e-02 -2.975351082556153548e-01
9.282558774024486647e-02 -2.975351082556153548e-01
9.361224526346728636e-02 -2.975351082556153548e-01
9.439890278668969237e-02 -2.975351082556153548e-01
9.518556030991211225e-02 -2.975351082556153548e-01
9.597221783313451826e-02 -2.975351082556153548e-01
9.675887535635693815e-02 -2.975351082556153548e-01
9.754553287957935803e-02 -2.975351082556153548e-01
9.833219040280176404e-02 -2.975351082556153548e-01
9.911884792602418393e-02 -2.975351082556153548e-01
9.990550544924658993e-02 -2.975351082556153548e-01
1.006921629724690098e-01 -2.975351082556153548e-01
1.014788204956914297e-01 -2.975351082556153548e-01
1.022654780189138357e-01 -2.975351082556153548e-01
1.030521355421362556e-01 -2.975351082556153548e-01
1.038387930653586616e-01 -2.975351082556153548e-01
1.046254505885810815e-01 -2.975351082556153548e-01
1.054121081118035014e-01 -2.975351082556153548e-01
1.061987656350259074e-01 -2.975351082556153548e-01
1.069854231582483273e-01 -2.975351082556153548e-01
1.077720806814707333e-01 -2.975351082556153548e-01
1.085587382046931532e-01 -2.975351082556153548e-01
1.093453957279155592e-01 -2.975351082556153548e-01
1.101320532511379791e-01 -2.975351082556153548e-01
1.109187107743603989e-01 -2.975351082556153548e-01
1.117053682975828049e-01 -2.975351082556153548e-01
1.124920258208052248e-01 -2.975351082556153548e-01
1.132786833440276308e-01 -2.975351082556153548e-01
1.140653408672500507e-01 -2.975351082556153548e-01
1.148519983904724706e-01 -2.975351082556153548e-01
1.156386559136948766e-01 -2.975351082556153548e-01
1.164253134369172965e-01 -2.975351082556153548e-01
1.172119709601397025e-01 -2.975351082556153548e-01
1.179986284833621224e-01 -2.975351082556153548e-01
1.187852860065845284e-01 -2.975351082556153548e-01
1.195719435298069483e-01 -2.975351082556153548e-01
1.203586010530293682e-01 -2.975351082556153548e-01
1.211452585762517742e-01 -2.975351082556153548e-01
1.219319160994741941e-01 -2.975351082556153548e-01
1.227185736226966001e-01 -2.975351082556153548e-01
1.235052311459190200e-01 -2.975351082556153548e-01
1.242918886691414398e-01 -2.975351082556153548e-01
1.250785461923638597e-01 -2.975351082556153548e-01
1.258652037155862657e-01 -2.975351082556153548e-01
1.266518612388086718e-01 -2.975351082556153548e-01
1.274385187620310778e-01 -2.975351082556153548e-01
1.282251762852535115e-01 -2.975351082556153548e-01
1.290118338084759175e-01 -2.975351082556153548e-01
1.297984913316983235e-01 -2.975351082556153548e-01
1.305851488549207573e-01 -2.975351082556153548e-01
1.313718063781431633e-01 -2.975351082556153548e-01
1.321584639013655693e-01 -2.975351082556153548e-01
1.329451214245880031e-01 -2.975351082556153548e-01
1.337317789478104091e-01 -2.975351082556153548e-01
1.345184364710328151e-01 -2.975351082556153548e-01
1.353050939942552211e-01 -2.975351082556153548e-01
1.360917515174776549e-01 -2.975351082556153548e-01
1.368784090407000609e-01 -2.975351082556153548e-01
1.376650665639224669e-01 -2.975351082556153548e-01
1.384517240871449006e-01 -2.975351082556153548e-01
1.392383816103673067e-01 -2.975351082556153548e-01
1.400250391335897127e-01 -2.975351082556153548e-01
1.408116966568121187e-01 -2.975351082556153548e-01
1.415983541800345524e-01 -2.975351082556153548e-01
1.423850117032569584e-01 -2.975351082556153548e-01
1.431716692264793644e-01 -2.975351082556153548e-01
1.439583267497017982e-01 -2.975351082556153548e-01
1.447449842729242042e-01 -2.975351082556153548e-01
1.455316417961466102e-01 -2.975351082556153548e-01
1.463182993193690162e-01 -2.975351082556153548e-01
1.471049568425914500e-01 -2.975351082556153548e-01
1.478916143658138560e-01 -2.975351082556153548e-01
1.486782718890362620e-01 -2.975351082556153548e-01
1.494649294122586958e-01 -2.975351082556153548e-01
1.502515869354811018e-01 -2.975351082556153548e-01
1.510382444587035078e-01 -2.975351082556153548e-01
1.518249019819259416e-01 -2.975351082556153548e-01
1.526115595051483476e-01 -2.975351082556153548e-01
1.533982170283707536e-01 -2.975351082556153548e-01
1.541848745515931596e-01 -2.975351082556153548e-01
1.549715320748155933e-01 -2.975351082556153548e-01
1.557581895980379993e-01 -2.975351082556153548e-01
1.565448471212604054e-01 -2.975351082556153548e-01
1.573315046444828391e-01 -2.975351082556153548e-01
1.581181621677052451e-01 -2.975351082556153548e-01
1.589048196909276511e-01 -2.975351082556153548e-01
1.596914772141500571e-01 -2.975351082556153548e-01
1.604781347373724909e-01 -2.975351082556153548e-01
1.612647922605948969e-01 -2.975351082556153548e-01
1.620514497838173029e-01 -2.975351082556153548e-01
1.628381073070397367e-01 -2.975351082556153548e-01
1.636247648302621427e-01 -2.975351082556153548e-01
1.644114223534845487e-01 -2.975351082556153548e-01
1.651980798767069825e-01 -2.975351082556153548e-01
1.659847373999293885e-01 -2.975351082556153548e-01
1.667713949231517945e-01 -2.975351082556153548e-01
1.675580524463742005e-01 -2.975351082556153548e-01
1.683447099695966342e-01 -2.975351082556153548e-01
1.691313674928190403e-01 -2.975351082556153548e-01
1.699180250160414463e-01 -2.975351082556153548e-01
1.707046825392638800e-01 -2.975351082556153548e-01
1.714913400624862860e-01 -2.975351082556153548e-01
1.722779975857086920e-01 -2.975351082556153548e-01
1.730646551089310980e-01 -2.975351082556153548e-01
1.738513126321535318e-01 -2.975351082556153548e-01
1.746379701553759378e-01 -2.975351082556153548e-01
1.754246276785983438e-01 -2.975351082556153548e-01
1.762112852018207776e-01 -2.975351082556153548e-01
1.769979427250431836e-01 -2.975351082556153548e-01
1.777846002482655896e-01 -2.975351082556153548e-01
1.785712577714880234e-01 -2.975351082556153548e-01
1.793579152947104294e-01 -2.975351082556153548e-01
1.801445728179328354e-01 -2.975351082556153548e-01
1.809312303411552414e-01 -2.975351082556153548e-01
1.817178878643776752e-01 -2.975351082556153548e-01
1.825045453876000812e-01 -2.975351082556153548e-01
1.832912029108224872e-01 -2.975351082556153548e-01
1.840778604340449209e-01 -2.975351082556153548e-01
1.848645179572673269e-01 -2.975351082556153548e-01
1.856511754804897329e-01 -2.975351082556153548e-01
1.864378330037121390e-01 -2.975351082556153548e-01
1.872244905269345727e-01 -2.975351082556153548e-01
1.880111480501569787e-01 -2.975351082556153548e-01
1.887978055733793847e-01 -2.975351082556153548e-01
1.895844630966018185e-01 -2.975351082556153548e-01
1.903711206198242245e-01 -2.975351082556153548e-01
1.911577781430466305e-01 -2.975351082556153548e-01
1.919444356662690365e-01 -2.975351082556153548e-01
1.927310931894914703e-01 -2.975351082556153548e-01
1.935177507127138763e-01 -2.975351082556153548e-01
1.943044082359362823e-01 -2.975351082556153548e-01
1.950910657591587161e-01 -2.975351082556153548e-01
1.958777232823811221e-01 -2.975351082556153548e-01
1.966643808056035281e-01 -2.975351082556153548e-01
1.974510383288259618e-01 -2.975351082556153548e-01
1.982376958520483679e-01 -2.975351082556153548e-01
1.990243533752707739e-01 -2.975351082556153548e-01
1.998110108984931799e-01 -2.975351082556153548e-01
2.005976684217156136e-01 -2.975351082556153548e-01
2.013843259449380196e-01 -2.975351082556153548e-01
2.021709834681604256e-01 -2.975351082556153548e-01
2.029576409913828594e-01 -2.975351082556153548e-01
2.037442985146052654e-01 -2.975351082556153548e-01
2.045309560378276714e-01 -2.975351082556153548e-01
2.053176135610500774e-01 -2.975351082556153548e-01
2.061042710842725112e-01 -2.975351082556153548e-01
2.068909286074949172e-01 -2.975351082556153548e-01
2.076775861307173232e-01 -2.975351082556153548e-01
2.084642436539397570e-01 -2.975351082556153548e-01
2.092509011771621630e-01 -2.975351082556153548e-01
2.100375587003845690e-01 -2.975351082556153548e-01
2.108242162236070028e-01 -2.975351082556153548e-01
2.116108737468294088e-01 -2.975351082556153548e-01
2.123975312700518148e-01 -2.975351082556153548e-01
2.131841887932742208e-01 -2.975351082556153548e-01
2.139708463164966545e-01 -2.975351082556153548e-01
2.147575038397190605e-01 -2.975351082556153548e-01
2.155441613629414666e-01 -2.975351082556153548e-01
2.163308188861639003e-01 -2.975351082556153548e-01
2.171174764093863063e-01 -2.975351082556153548e-01
2.179041339326087123e-01 -2.975351082556153548e-01
2.186907914558311183e-01 -2.975351082556153548e-01
2.194774489790535521e-01 -2.975351082556153548e-01
2.202641065022759581e-01 -2.975351082556153548e-01
2.210507640254983641e-01 -2.975351082556153548e-01
2.218374215487207979e-01 -2.975351082556153548e-01
2.226240790719432039e-01 -2.975351082556153548e-01
2.234107365951656099e-01 -2.975351082556153548e-01
2.241973941183880159e-01 -2.975351082556153548e-01
2.249840516416104497e-01 -2.975351082556153548e-01
2.257707091648328557e-01 -2.975351082556153548e-01
2.265573666880552617e-01 -2.975351082556153548e-01
2.273440242112776954e-01 -2.975351082556153548e-01
2.281306817345001015e-01 -2.975351082556153548e-01
2.289173392577225075e-01 -2.975351082556153548e-01
2.297039967809449412e-01 -2.975351082556153548e-01
2.304906543041673472e-01 -2.975351082556153548e-01
2.312773118273897532e-01 -2.975351082556153548e-01
2.320639693506121592e-01 -2.975351082556153548e-01
2.328506268738345930e-01 -2.975351082556153548e-01
2.336372843970569990e-01 -2.975351082556153548e-01
2.344239419202794050e-01 -2.975351082556153548e-01
2.352105994435018388e-01 -2.975351082556153548e-01
2.359972569667242448e-01 -2.975351082556153548e-01
2.367839144899466508e-01 -2.975351082556153548e-01
2.375705720131690568e-01 -2.975351082556153548e-01
2.383572295363914906e-01 -2.975351082556153548e-01
2.391438870596138966e-01 -2.975351082556153548e-01
2.399305445828363026e-01 -2.975351082556153548e-01
2.407172021060587364e-01 -2.975351082556153548e-01
2.415038596292811424e-01 -2.975351082556153548e-01
2.422905171525035484e-01 -2.975351082556153548e-01
2.430771746757259821e-01 -2.975351082556153548e-01
2.438638321989483881e-01 -2.975351082556153548e-01
2.446504897221707941e-01 -2.975351082556153548e-01
2.454371472453932002e-01 -2.975351082556153548e-01
2.462238047686156339e-01 -2.975351082556153548e-01
2.470104622918380399e-01 -2.975351082556153548e-01
2.477971198150604459e-01 -2.975351082556153548e-01
2.485837773382828797e-01 -2.975351082556153548e-01
2.493704348615052857e-01 -2.975351082556153548e-01
2.501570923847277195e-01 -2.975351082556153548e-01
2.509437499079500977e-01 -2.975351082556153548e-01
2.517304074311725315e-01 -2.975351082556153548e-01
2.525170649543949652e-01 -2.975351082556153548e-01
2.533037224776173435e-01 -2.975351082556153548e-01
2.540903800008397773e-01 -2.975351082556153548e-01
2.548770375240621555e-01 -2.975351082556153548e-01
2.556636950472845893e-01 -2.975351082556153548e-01
2.564503525705070230e-01 -2.975351082556153548e-01
2.572370100937294013e-01 -2.975351082556153548e-01
2.580236676169518351e-01 -2.975351082556154658e-01
2.588103251401742688e-01 -2.975351082556155768e-01
2.595969826633966471e-01 -2.975351082556160209e-01
2.603836401866190808e-01 -2.975351082556169091e-01
2.611702977098415146e-01 -2.975351082556201288e-01
2.619569552330638929e-01 -2.975351082556250137e-01
2.627436127562863266e-01 -2.975351082556417781e-01
2.635302702795087604e-01 -2.975351082556668691e-01
2.643169278027311386e-01 -2.975351082557471383e-01
2.651035853259535724e-01 -2.975351082558652660e-01
2.658902428491760062e-01 -2.975351082562124327e-01
2.666769003723983844e-01 -2.975351082567176952e-01
2.674635578956208182e-01 -2.975351082580806050e-01
2.682502154188431964e-01 -2.975351082600494745e-01
2.690368729420656302e-01 -2.975351082649203560e-01
2.698235304652880640e-01 -2.975351082719289719e-01
2.706101879885104422e-01 -2.975351082878376907e-01
2.713968455117328760e-01 -2.975351083107198313e-01
2.721835030349553097e-01 -2.975351083584529821e-01
2.729701605581776880e-01 -2.975351084273268887e-01
2.737568180814001217e-01 -2.975351085598706424e-01
2.745434756046225555e-01 -2.975351087523003812e-01
2.753301331278449338e-01 -2.975351090962620182e-01
2.761167906510673675e-01 -2.975351095996383588e-01
2.769034481742898013e-01 -2.975351104439848404e-01
2.776901056975121795e-01 -2.975351116894612291e-01
2.784767632207346133e-01 -2.975351136759055715e-01
2.792634207439570471e-01 -2.975351166222500732e-01
2.800500782671794253e-01 -2.975351211541533702e-01
2.808367357904018591e-01 -2.975351278841313896e-01
2.816233933136242373e-01 -2.975351379904628280e-01
2.824100508368466711e-01 -2.975351529430526609e-01
2.831967083600691049e-01 -2.975351750446540988e-01
2.839833658832914831e-01 -2.975352074924096923e-01
2.847700234065139169e-01 -2.975352548787704166e-01
2.855566809297363506e-01 -2.975353237497355696e-01
2.863433384529587289e-01 -2.975354232025757550e-01
2.871299959761811627e-01 -2.975355661753257275e-01
2.879166534994035964e-01 -2.975357702679690686e-01
2.887033110226259747e-01 -2.975360604457049085e-01
2.894899685458484084e-01 -2.975364698588106593e-01
2.902766260690708422e-01 -2.975370455207613229e-01
2.910632835922932204e-01 -2.975378484885929931e-01
2.918499411155156542e-01 -2.975389647058739317e-01
2.926365986387380325e-01 -2.975405045883674493e-01
2.934232561619604662e-01 -2.975426200947107747e-01
2.942099136851829000e-01 -2.975455070121942880e-01
2.949965712084052782e-01 -2.975494255707720193e-01
2.957832287316277120e-01 -2.975547138405545411e-01
2.965698862548501458e-01 -2.975618057612535727e-01
2.973565437780725240e-01 -2.975712654486660780e-01
2.981432013012949578e-01 -2.975838005981024104e-01
2.989298588245173915e-01 -2.976003181725307423e-01
2.997165163477397698e-01 -2.976219451565237373e-01
3.005031738709622036e-01 -2.976500905557605270e-01
3.012898313941846373e-01 -2.976864943321778645e-01
3.020764889174070156e-01 -2.977332796399426718e-01
3.028631464406294493e-01 -2.977930329941338439e-01
3.036498039638518831e-01 -2.978688534076339156e-01
3.044364614870742614e-01 -2.979644337747973104e-01
3.052231190102966951e-01 -2.980841260089710509e-01
3.060097765335190734e-01 -2.982329905748571930e-01
3.067964340567415071e-01 -2.984168613458679786e-01
3.075830915799639409e-01 -2.986423596289108362e-01
3.083697491031863192e-01 -2.989168968829679640e-01
3.091564066264087529e-01 -2.992486424385308874e-01
3.099430641496311867e-01 -2.996464130197143971e-01
3.107297216728535649e-01 -3.001195230753049836e-01
3.115163791960759987e-01 -3.006775365620046880e-01
3.123030367192984325e-01 -3.013299092417626168e-01
3.130896942425208107e-01 -3.020855369685536695e-01
3.138763517657432445e-01 -3.029521431075248294e-01
3.146630092889656782e-01 -3.039355163579353647e-01
3.154496668121880565e-01 -3.050385968521128754e-01
3.162363243354104902e-01 -3.062603548689168953e-01
3.170229818586329240e-01 -3.075945022481295643e-01
3.178096393818553023e-01 -3.090280279210029235e-01
3.185962969050777360e-01 -3.105395398979788890e-01
3.193829544283001143e-01 -3.120974837215148012e-01
3.201696119515225480e-01 -3.136582449789920846e-01
3.209562694747449818e-01 -3.151641774300634191e-01
3.217429269979673601e-01 -3.165416608076202509e-01
3.225295845211897938e-01 -3.176992461585738114e-01
3.233162420444122276e-01 -3.185259847576803471e-01
3.241028995676346058e-01 -3.188900913858326858e-01
3.248895570908570396e-01 -3.186380438586651209e-01
3.256762146140794734e-01 -3.175942460773294451e-01
3.264628721373018516e-01 -3.155614614281165853e-01
3.272495296605242854e-01 -3.123220736963957522e-01
3.280361871837467191e-01 -3.076403922329964402e-01
3.288228447069690974e-01 -3.012660619587014255e-01
3.296095022301915312e-01 -2.929386959311962579e-01
3.303961597534139649e-01 -2.823937792393339530e-01
3.311828172766363432e-01 -2.693698128122402613e-01
3.319694747998587769e-01 -2.536167309997202635e-01
3.327561323230811552e-01 -2.349053578821415078e-01
3.335427898463035890e-01 -2.130378133199984925e-01
3.343294473695260227e-01 -1.878585891551753928e-01
3.351161048927484010e-01 -1.592658854029971316e-01
3.359027624159708347e-01 -1.272229179305509605e-01
3.366894199391932685e-01 -9.176868774824065156e-02
3.374760774624156467e-01 -5.302765000644615867e-02
3.382627349856380805e-01 -1.121788495000863861e-02
3.390493925088605143e-01 3.334286333692504378e-02
3.398360500320828925e-01 8.023378896711941266e-02
3.406227075553053263e-01 1.289306450507750057e-01
3.414093650785277601e-01 1.788088233618010392e-01
3.421960226017501383e-01 2.291501810764509095e-01
3.429826801249725721e-01 2.791536729481460810e-01
3.437693376481950058e-01 3.279498189573037958e-01
3.445559951714173841e-01 3.746188588813201825e-01
3.453426526946398178e-01 4.182121334760025011e-01
3.461293102178621961e-01 4.577762081454450627e-01
3.469159677410846299e-01 4.923790630014812653e-01
3.477026252643070636e-01 5.211374411196079137e-01
3.484892827875294419e-01 5.432444137483516400e-01
3.492759403107518756e-01 5.579961863773357233e-01
3.500625978339743094e-01 5.648170085116768213e-01
3.508492553571966877e-01 5.632811622595943479e-01
3.516359128804191214e-01 5.531311031173893333e-01
3.524225704036415552e-01 5.342908680896698570e-01
3.532092279268639334e-01 5.068740448801678511e-01
3.539958854500863672e-01 4.711858772617067981e-01
3.547825429733088010e-01 4.277192383787260521e-01
3.555692004965311792e-01 3.771444451716439161e-01
3.563558580197536130e-01 3.202932269280416300e-01
3.571425155429760467e-01 2.581373597615861382e-01
3.579291730661984250e-01 1.917626777978842512e-01
3.587158305894208588e-01 1.223394082990447718e-01
3.595024881126432370e-01 5.108996892711026305e-02
3.602891456358656708e-01 -2.074463061509679296e-02
3.610758031590881045e-01 -9.193853398664675325e-02
3.618624606823104828e-01 -1.613136605457012873e-01
3.626491182055329165e-01 -2.277700734107169778e-01
3.634357757287553503e-01 -2.903130681832053472e-01
3.642224332519777286e-01 -3.480760649241054772e-01
3.650090907752001623e-01 -4.003386197906929622e-01
3.657957482984225961e-01 -4.465391438237267252e-01
3.665824058216449743e-01 -4.862820804988227108e-01
3.673690633448674081e-01 -5.193395289974228612e-01
3.681557208680898419e-01 -5.456475927446781116e-01
3.689423783913122201e-01 -5.652978792032874455e-01
3.697290359145346539e-01 -5.785247173100245277e-01
3.705156934377570321e-01 -5.856888577423537967e-01
3.713023509609794659e-01 -5.872584943161003324e-01
3.720890084842018997e-01 -5.837884409668985253e-01
3.728756660074242779e-01 -5.758983316380306139e-01
3.736623235306467117e-01 -5.642507214974425978e-01
3.744489810538691454e-01 -5.495298215810902054e-01
3.752356385770915237e-01 -5.324215296934657893e-01
3.760222961003139575e-01 -5.135953199686537074e-01
3.768089536235363912e-01 -4.936884329024996410e-01
3.775956111467587695e-01 -4.732925985071040342e-01
3.783822686699812032e-01 -4.529434871512699745e-01
3.791689261932036370e-01 -4.331129249607225118e-01
3.799555837164260153e-01 -4.142037775141769185e-01
3.807422412396484490e-01 -3.965473401245070972e-01
3.815288987628708828e-01 -3.804030087539562732e-01
3.823155562860932610e-01 -3.659599594764066932e-01
3.831022138093156948e-01 -3.533404920544109817e-01
3.838888713325380730e-01 -3.426047321872601747e-01
3.846755288557605068e-01 -3.337563855109231259e-01
3.854621863789829406e-01 -3.267492200499957367e-01
3.862488439022053188e-01 -3.214939979115341018e-01
3.870355014254277526e-01 -3.178656446137128055e-01
3.878221589486501863e-01 -3.157104222453517295e-01
3.886088164718725646e-01 -3.148529379016299368e-01
3.893954739950949984e-01 -3.151028545856402463e-01
3.901821315183174321e-01 -3.162612073640106436e-01
3.909687890415398104e-01 -3.181262228844851103e-01
3.917554465647622441e-01 -3.204986005360294099e-01
3.925421040879846779e-01 -3.231861988541888664e-01
3.933287616112070562e-01 -3.260081271308876705e-01
3.941154191344294899e-01 -3.287981972213525061e-01
3.949020766576519237e-01 -3.314077539667291683e-01
3.956887341808743019e-01 -3.337078810539552132e-01
3.964753917040967357e-01 -3.355910106261658088e-01
3.972620492273191140e-01 -3.369719322130239059e-01
3.980487067505415477e-01 -3.377882736462065605e-01
3.988353642737639815e-01 -3.380004905195416187e-01
3.996220217969863597e-01 -3.375913943897759228e-01
4.004086793202087935e-01 -3.365653128059650223e-01
4.011953368434312273e-01 -3.349469378676656062e-01
4.019819943666536055e-01 -3.327799413729272127e-01
4.027686518898760393e-01 -3.301254049680752978e-01
4.035553094130984730e-01 -3.270601718682785153e-01
4.043419669363208513e-01 -3.236751290626953548e-01
4.051286244595432851e-01 -3.200734898189716571e-01
4.059152819827657188e-01 -3.163690913067180865e-01
4.067019395059880971e-01 -3.126847199437831071e-01
4.074885970292105308e-01 -3.091504421454132068e-01
4.082752545524329646e-01 -3.059019159911758878e-01
4.090619120756553428e-01 -3.030786527962990862e-01
4.098485695988777766e-01 -3.008221574998273251e-01
4.106352271221001549e-01 -2.992739189580860826e-01
4.114218846453225886e-01 -2.985731875994790396e-01
4.122085421685450224e-01 -2.988545140820935142e-01
4.129951996917674006e-01 -3.002450429455674197e-01
4.137818572149898344e-01 -3.028615637198571742e-01
4.145685147382122682e-01 -3.068073710266892018e-01
4.153551722614346464e-01 -3.121689852704087054e-01
4.161418297846570802e-01 -3.190128736730521997e-01
4.169284873078795139e-01 -3.273822632260123822e-01
4.177151448311018922e-01 -3.372942010378643385e-01
4.185018023543243260e-01 -3.487370336792309233e-01
4.192884598775467597e-01 -3.616684297778690604e-01
4.200751174007691380e-01 -3.760141043729882115e-01
4.208617749239915717e-01 -3.916673501973025884e-01
4.216484324472140055e-01 -4.084894840632190549e-01
4.224350899704363838e-01 -4.263112001375173321e-01
4.232217474936588175e-01 -4.449348662406856780e-01
4.240084050168811958e-01 -4.641376937763308508e-01
4.247950625401036295e-01 -4.836756843798963867e-01
4.255817200633260633e-01 -5.032881888545430726e-01
4.263683775865484415e-01 -5.227029283834478957e-01
4.271550351097708753e-01 -5.416412841271516232e-01
4.279416926329933091e-01 -5.598236285270312695e-01
4.287283501562156873e-01 -5.769745189473677316e-01
4.295150076794381211e-01 -5.928275836270890942e-01
4.303016652026605549e-01 -6.071299507756777736e-01
4.310883227258829331e-01 -6.196461222460569740e-01
4.318749802491053669e-01 -6.301612484065564068e-01
4.326616377723278006e-01 -6.384837970062664514e-01
4.334482952955501789e-01 -6.444476745975373788e-01
4.342349528187726126e-01 -6.479138693622745748e-01
4.350216103419950464e-01 -6.487717610480869812e-01
4.358082678652174247e-01 -6.469402055377471150e-01
4.365949253884398584e-01 -6.423685565403339792e-01
4.373815829116622367e-01 -6.350376966855504346e-01
4.381682404348846704e-01 -6.249612079893093197e-01
4.389548979581071042e-01 -6.121866844749742631e-01
4.397415554813294825e-01 -5.967971871538488848e-01
4.405282130045519162e-01 -5.789127258713808732e-01
4.413148705277743500e-01 -5.586916622588771197e-01
4.421015280509967282e-01 -5.363318275899853216e-01
4.428881855742191620e-01 -5.120710986324925607e-01
4.436748430974415958e-01 -4.861871858829689419e-01
4.444615006206639740e-01 -4.589963639562352204e-01
4.452481581438864078e-01 -4.308509323465020691e-01
4.460348156671088415e-01 -4.021351692872996431e-01
4.468214731903312198e-01 -3.732596978928046649e-01
4.476081307135536536e-01 -3.446542284697521330e-01
4.483947882367760318e-01 -3.167587541093608294e-01
4.491814457599984656e-01 -2.900133902557094912e-01
4.499681032832208993e-01 -2.648471573231094833e-01
4.507547608064432776e-01 -2.416661306608461901e-01
4.515414183296657114e-01 -2.208414181632650797e-01
4.523280758528881451e-01 -2.026975209780338405e-01
4.531147333761105234e-01 -1.875016592076516053e-01
4.539013908993329571e-01 -1.754545962444843399e-01
4.546880484225553909e-01 -1.666834849910394656e-01
4.554747059457777691e-01 -1.612371582763483246e-01
4.562613634690002029e-01 -1.590841871423765985e-01
4.570480209922226367e-01 -1.601138777487119969e-01
4.578346785154450149e-01 -1.641402312420899845e-01
4.586213360386674487e-01 -1.709087323950591042e-01
4.594079935618898825e-01 -1.801057059052177944e-01
4.601946510851122607e-01 -1.913697946321100130e-01
4.609813086083346945e-01 -2.043050402729897908e-01
4.617679661315570727e-01 -2.184949715036981210e-01