0.000000000000000000e+00 2.849447821764039546e-02
7.866575232224141392e-04 2.875133730023149425e-02
1.573315046444828278e-03 2.875133730023149425e-02
2.359972569667242309e-03 2.875133730023149425e-02
3.146630092889656557e-03 2.875133730023149425e-02
3.933287616112070804e-03 2.875133730023149425e-02
4.719945139334484618e-03 2.875133730023149425e-02
5.506602662556899300e-03 2.875133730023149425e-02
6.293260185779313114e-03 2.875133730023149425e-02
7.079917709001726928e-03 2.875133730023149425e-02
7.866575232224141609e-03 2.875133730023149425e-02
8.653232755446556290e-03 2.875133730023149425e-02
9.439890278668969237e-03 2.875133730023149425e-02
1.022654780189138392e-02 2.875133730023149425e-02
1.101320532511379860e-02 2.875133730023149425e-02
1.179986284833621155e-02 2.875133730023149425e-02
1.258652037155862623e-02 2.875133730023149425e-02
1.337317789478104091e-02 2.875133730023149425e-02
1.415983541800345386e-02 2.875133730023149425e-02
1.494649294122586854e-02 2.875133730023149425e-02
1.573315046444828322e-02 2.875133730023149425e-02
1.651980798767069616e-02 2.875133730023149425e-02
1.730646551089311258e-02 2.875133730023149425e-02
1.809312303411552553e-02 2.875133730023149425e-02
1.887978055733793847e-02 2.875133730023149425e-02
1.966643808056035489e-02 2.875133730023149425e-02
2.045309560378276784e-02 2.875133730023149425e-02
2.123975312700518078e-02 2.875133730023149425e-02
2.202641065022759720e-02 2.875133730023149425e-02
2.281306817345001015e-02 2.875133730023149425e-02
2.359972569667242309e-02 2.875133730023149425e-02
2.438638321989483951e-02 2.875133730023149425e-02
2.517304074311725245e-02 2.875133730023149425e-02
2.595969826633966540e-02 2.875133730023149425e-02
2.674635578956208182e-02 2.875133730023149425e-02
2.753301331278449476e-02 2.875133730023149425e-02
2.831967083600690771e-02 2.875133730023149425e-02
2.910632835922932413e-02 2.875133730023149425e-02
2.989298588245173707e-02 2.875133730023149425e-02
3.067964340567415002e-02 2.875133730023149425e-02
3.146630092889656644e-02 2.875133730023149425e-02
3.225295845211897938e-02 2.875133730023149425e-02
3.303961597534139233e-02 2.875133730023149425e-02
3.382627349856380528e-02 2.875133730023149425e-02
3.461293102178622516e-02 2.875133730023149425e-02
3.539958854500863811e-02 2.875133730023149425e-02
3.618624606823105105e-02 2.875133730023149425e-02
3.697290359145346400e-02 2.875133730023149425e-02
3.775956111467587695e-02 2.875133730023149425e-02
3.854621863789828989e-02 2.875133730023149425e-02
3.933287616112070978e-02 2.875133730023149425e-02
4.011953368434312273e-02 2.875133730023149425e-02
4.090619120756553567e-02 2.875133730023149425e-02
4.169284873078794862e-02 2.875133730023149425e-02
4.247950625401036157e-02 2.875133730023149425e-02
4.326616377723277451e-02 2.875133730023149425e-02
4.405282130045519440e-02 2.875133730023149425e-02
4.483947882367760734e-02 2.875133730023149425e-02
4.562613634690002029e-02 2.875133730023149425e-02
4.641279387012243324e-02 2.875133730023149425e-02
4.719945139334484618e-02 2.875133730023149425e-02
4.798610891656725913e-02 2.875133730023149425e-02
4.877276643978967902e-02 2.875133730023149425e-02
4.955942396301209196e-02 2.875133730023149425e-02
5.034608148623450491e-02 2.875133730023149425e-02
5.113273900945691786e-02 2.875133730023149425e-02
5.191939653267933080e-02 2.875133730023149425e-02
5.270605405590175069e-02 2.875133730023149425e-02
5.349271157912416363e-02 2.875133730023149425e-02
5.427936910234657658e-02 2.875133730023149425e-02
5.506602662556898953e-02 2.875133730023149425e-02
5.585268414879140247e-02 2.875133730023149425e-02
5.663934167201381542e-02 2.875133730023149425e-02
5.742599919523623531e-02 2.875133730023149425e-02
5.821265671845864825e-02 2.875133730023149425e-02
5.899931424168106120e-02 2.875133730023149425e-02
5.978597176490347415e-02 2.875133730023149425e-02
6.057262928812588709e-02 2.875133730023149425e-02
6.135928681134830004e-02 2.875133730023149425e-02
6.214594433457071992e-02 2.875133730023149425e-02
6.293260185779313287e-02 2.875133730023149425e-02
6.371925938101553888e-02 2.875133730023149425e-02
6.450591690423795876e-02 2.875133730023149425e-02
6.529257442746037865e-02 2.875133730023149425e-02
6.607923195068278466e-02 2.875133730023149425e-02
6.686588947390520454e-02 2.875133730023149425e-02
6.765254699712761055e-02 2.875133730023149425e-02
6.843920452035003044e-02 2.875133730023149425e-02
6.922586204357245032e-02 2.875133730023149425e-02
7.001251956679485633e-02 2.875133730023149425e-02
7.079917709001727621e-02 2.875133730023149425e-02
7.158583461323968222e-02 2.875133730023149425e-02
7.237249213646210211e-02 2.875133730023149425e-02
7.315914965968450812e-02 2.875133730023149425e-02
7.394580718290692800e-02 2.875133730023149425e-02
7.473246470612934789e-02 2.875133730023149425e-02
7.551912222935175389e-02 2.875133730023149425e-02
7.630577975257417378e-02 2.875133730023149425e-02
7.709243727579657979e-02 2.875133730023149425e-02
7.787909479901899967e-02 2.875133730023149425e-02
7.866575232224141956e-02 2.875133730023149425e-02
7.945240984546382557e-02 2.875133730023149425e-02
8.023906736868624545e-02 2.875133730023149425e-02
8.102572489190865146e-02 2.875133730023149425e-02
8.181238241513107134e-02 2.875133730023149425e-02
8.259903993835349123e-02 2.875133730023149425e-02
8.338569746157589724e-02 2.875133730023149425e-02
8.417235498479831712e-02 2.875133730023149425e-02
8.495901250802072313e-02 2.875133730023149425e-02
8.574567003124314302e-02 2.875133730023149425e-02
8.653232755446554902e-02 2.875133730023149425e-02
8.731898507768796891e-02 2.875133730023149425e-02
8.810564260091038880e-02 2.875133730023149425e-02
8.889230012413279480e-02 2.875133730023149425e-02
8.967895764735521469e-02 2.875133730023149425e-02
9.046561517057762070e-02 2.875133730023149425e-02
9.125227269380004058e-02 2.875133730023149425e-02
9.203893021702246047e-02 2.875133730023149425e-02
9.282558774024486647e-02 2.875133730023149425e-02
9.361224526346728636e-02 2.875133730023149425e-02
9.439890278668969237e-02 2.875133730023149425e-02
9.518556030991211225e-02 2.875133730023149425e-02
9.597221783313451826e-02 2.875133730023149425e-02
9.675887535635693815e-02 2.875133730023149425e-02
9.754553287957935803e-02 2.875133730023149425e-02
9.833219040280176404e-02 2.875133730023149425e-02
9.911884792602418393e-02 2.875133730023149425e-02
9.990550544924658993e-02 2.875133730023149425e-02
1.006921629724690098e-01 2.875133730023149425e-02
1.014788204956914297e-01 2.875133730023149425e-02
1.022654780189138357e-01 2.875133730023149425e-02
1.030521355421362556e-01 2.875133730023149425e-02
1.038387930653586616e-01 2.875133730023149425e-02
1.046254505885810815e-01 2.875133730023149425e-02
1.054121081118035014e-01 2.875133730023149425e-02
1.061987656350259074e-01 2.875133730023149425e-02
1.069854231582483273e-01 2.875133730023149425e-02
1.077720806814707333e-01 2.875133730023149425e-02
1.085587382046931532e-01 2.875133730023149425e-02
1.093453957279155592e-01 2.875133730023149425e-02
1.101320532511379791e-01 2.875133730023149425e-02
1.109187107743603989e-01 2.875133730023149425e-02
1.117053682975828049e-01 2.875133730023149425e-02
1.124920258208052248e-01 2.875133730023149425e-02
1.132786833440276308e-01 2.875133730023149425e-02
1.140653408672500507e-01 2.875133730023149425e-02
1.148519983904724706e-01 2.875133730023149425e-02
1.156386559136948766e-01 2.875133730023149425e-02
1.164253134369172965e-01 2.875133730023149425e-02
1.172119709601397025e-01 2.875133730023149425e-02
1.179986284833621224e-01 2.875133730023149425e-02
1.187852860065845284e-01 2.875133730023149425e-02
1.195719435298069483e-01 2.875133730023149425e-02
1.203586010530293682e-01 2.875133730023149425e-02
1.211452585762517742e-01 2.875133730023149425e-02
1.219319160994741941e-01 2.875133730023149425e-02
1.227185736226966001e-01 2.875133730023149425e-02
1.235052311459190200e-01 2.875133730023149425e-02
1.242918886691414398e-01 2.875133730023149425e-02
1.250785461923638597e-01 2.875133730023149425e-02
1.258652037155862657e-01 2.875133730023149425e-02
1.266518612388086718e-01 2.875133730023149425e-02
1.274385187620310778e-01 2.875133730023149425e-02
1.282251762852535115e-01 2.875133730023149425e-02
1.290118338084759175e-01 2.875133730023149425e-02
1.297984913316983235e-01 2.875133730023149425e-02
1.305851488549207573e-01 2.875133730023149425e-02
1.313718063781431633e-01 2.875133730023149425e-02
1.321584639013655693e-01 2.875133730023149425e-02
1.329451214245880031e-01 2.875133730023149425e-02
1.337317789478104091e-01 2.875133730023149425e-02
1.345184364710328151e-01 2.875133730023149425e-02
1.353050939942552211e-01 2.875133730023149425e-02
1.360917515174776549e-01 2.875133730023149425e-02
1.368784090407000609e-01 2.875133730023149425e-02
1.376650665639224669e-01 2.875133730023149425e-02
1.384517240871449006e-01 2.875133730023149425e-02
1.392383816103673067e-01 2.875133730023149425e-02
1.400250391335897127e-01 2.875133730023149425e-02
1.408116966568121187e-01 2.875133730023149425e-02
1.415983541800345524e-01 2.875133730023149425e-02
1.423850117032569584e-01 2.875133730023149425e-02
1.431716692264793644e-01 2.875133730023149425e-02
1.439583267497017982e-01 2.875133730023149425e-02
1.447449842729242042e-01 2.875133730023149425e-02
1.455316417961466102e-01 2.875133730023149425e-02
1.463182993193690162e-01 2.875133730023149425e-02
1.471049568425914500e-01 2.875133730023149425e-02
1.478916143658138560e-01 2.875133730023149425e-02
1.486782718890362620e-01 2.875133730023149425e-02
1.494649294122586958e-01 2.875133730023149425e-02
1.502515869354811018e-01 2.875133730023149425e-02
1.510382444587035078e-01 2.875133730023149425e-02
1.518249019819259416e-01 2.875133730023149425e-02
1.526115595051483476e-01 2.875133730023149425e-02
1.533982170283707536e-01 2.875133730023149425e-02
1.541848745515931596e-01 2.875133730023149425e-02
1.549715320748155933e-01 2.875133730023149425e-02
1.557581895980379993e-01 2.875133730023149425e-02
1.565448471212604054e-01 2.875133730023149425e-02
1.573315046444828391e-01 2.875133730023149425e-02
1.581181621677052451e-01 2.875133730023149425e-02
1.589048196909276511e-01 2.875133730023149425e-02
1.596914772141500571e-01 2.875133730023149425e-02
1.604781347373724909e-01 2.875133730023149425e-02
1.612647922605948969e-01 2.875133730023149425e-02
1.620514497838173029e-01 2.875133730023149425e-02
1.628381073070397367e-01 2.875133730023149425e-02
1.636247648302621427e-01 2.875133730023149425e-02
1.644114223534845487e-01 2.875133730023149425e-02
1.651980798767069825e-01 2.875133730023149425e-02
1.659847373999293885e-01 2.875133730023149425e-02
1.667713949231517945e-01 2.875133730023149425e-02
1.675580524463742005e-01 2.875133730023149425e-02
1.683447099695966342e-01 2.875133730023149425e-02
1.691313674928190403e-01 2.875133730023149425e-02
1.699180250160414463e-01 2.875133730023149425e-02
1.707046825392638800e-01 2.875133730023149425e-02
1.714913400624862860e-01 2.875133730023149425e-02
1.722779975857086920e-01 2.875133730023149425e-02
1.730646551089310980e-01 2.875133730023149425e-02
1.738513126321535318e-01 2.875133730023149425e-02
1.746379701553759378e-01 2.875133730023149425e-02
1.754246276785983438e-01 2.875133730023149425e-02
1.762112852018207776e-01 2.875133730023149425e-02
1.769979427250431836e-01 2.875133730023149425e-02
1.777846002482655896e-01 2.875133730023149425e-02
1.785712577714880234e-01 2.875133730023149425e-02
1.793579152947104294e-01 2.875133730023149425e-02
1.801445728179328354e-01 2.875133730023149425e-02
1.809312303411552414e-01 2.875133730023149425e-02
1.817178878643776752e-01 2.875133730023149425e-02
1.825045453876000812e-01 2.875133730023149425e-02
1.832912029108224872e-01 2.875133730023149425e-02
1.840778604340449209e-01 2.875133730023149425e-02
1.848645179572673269e-01 2.875133730023149425e-02
1.856511754804897329e-01 2.875133730023149425e-02
1.864378330037121390e-01 2.875133730023149425e-02
1.872244905269345727e-01 2.875133730023149425e-02
1.880111480501569787e-01 2.875133730023149425e-02
1.887978055733793847e-01 2.875133730023149425e-02
1.895844630966018185e-01 2.875133730023149425e-02
1.903711206198242245e-01 2.875133730023149425e-02
1.911577781430466305e-01 2.875133730023149425e-02
1.919444356662690365e-01 2.875133730023149425e-02
1.927310931894914703e-01 2.875133730023149425e-02
1.935177507127138763e-01 2.875133730023149425e-02
1.943044082359362823e-01 2.875133730023149425e-02
1.950910657591587161e-01 2.875133730023149425e-02
1.958777232823811221e-01 2.875133730023149425e-02
1.966643808056035281e-01 2.875133730023149425e-02
1.974510383288259618e-01 2.875133730023149425e-02
1.982376958520483679e-01 2.875133730023149425e-02
1.990243533752707739e-01 2.875133730023149425e-02
1.998110108984931799e-01 2.875133730023149425e-02
2.005976684217156136e-01 2.875133730023149425e-02
2.013843259449380196e-01 2.875133730023149425e-02
2.021709834681604256e-01 2.875133730023149425e-02
2.029576409913828594e-01 2.875133730023149425e-02
2.037442985146052654e-01 2.875133730023149425e-02
2.045309560378276714e-01 2.875133730023149425e-02
2.053176135610500774e-01 2.875133730023149425e-02
2.061042710842725112e-01 2.875133730023149425e-02
2.068909286074949172e-01 2.875133730023149425e-02
2.076775861307173232e-01 2.875133730023149425e-02
2.084642436539397570e-01 2.875133730023149425e-02
2.092509011771621630e-01 2.875133730023149425e-02
2.100375587003845690e-01 2.875133730023149425e-02
2.108242162236070028e-01 2.875133730023149425e-02
2.116108737468294088e-01 2.875133730023149425e-02
2.123975312700518148e-01 2.875133730023149425e-02
2.131841887932742208e-01 2.875133730023149425e-02
2.139708463164966545e-01 2.875133730023149425e-02
2.147575038397190605e-01 2.875133730023149425e-02
2.155441613629414666e-01 2.875133730023149425e-02
2.163308188861639003e-01 2.875133730023149425e-02
2.171174764093863063e-01 2.875133730023149425e-02
2.179041339326087123e-01 2.875133730023149425e-02
2.186907914558311183e-01 2.875133730023149425e-02
2.194774489790535521e-01 2.875133730023149425e-02
2.202641065022759581e-01 2.875133730023149425e-02
2.210507640254983641e-01 2.875133730023149425e-02
2.218374215487207979e-01 2.875133730023149425e-02
2.226240790719432039e-01 2.875133730023149425e-02
2.234107365951656099e-01 2.875133730023149425e-02
2.241973941183880159e-01 2.875133730023149425e-02
2.249840516416104497e-01 2.875133730023149425e-02
2.257707091648328557e-01 2.875133730023149425e-02
2.265573666880552617e-01 2.875133730023149425e-02
2.273440242112776954e-01 2.875133730023149425e-02
2.281306817345001015e-01 2.875133730023149425e-02
2.289173392577225075e-01 2.875133730023149425e-02
2.297039967809449412e-01 2.875133730023149425e-02
2.304906543041673472e-01 2.875133730023149425e-02
2.312773118273897532e-01 2.875133730023149425e-02
2.320639693506121592e-01 2.875133730023149425e-02
2.328506268738345930e-01 2.875133730023149425e-02
2.336372843970569990e-01 2.875133730023149425e-02
2.344239419202794050e-01 2.875133730023149425e-02
2.352105994435018388e-01 2.875133730023149425e-02
2.359972569667242448e-01 2.875133730023149425e-02
2.367839144899466508e-01 2.875133730023149425e-02
2.375705720131690568e-01 2.875133730023149425e-02
2.383572295363914906e-01 2.875133730023149425e-02
2.391438870596138966e-01 2.875133730023149425e-02
2.399305445828363026e-01 2.875133730023149425e-02
2.407172021060587364e-01 2.875133730023149425e-02
2.415038596292811424e-01 2.875133730023149425e-02
2.422905171525035484e-01 2.875133730023149425e-02
2.430771746757259821e-01 2.875133730023149425e-02
2.438638321989483881e-01 2.875133730023149425e-02
2.446504897221707941e-01 2.875133730023149425e-02
2.454371472453932002e-01 2.875133730023149425e-02
2.462238047686156339e-01 2.875133730023149425e-02
2.470104622918380399e-01 2.875133730023149425e-02
2.477971198150604459e-01 2.875133730023149425e-02
2.485837773382828797e-01 2.875133730023149425e-02
2.493704348615052857e-01 2.875133730023149425e-02
2.501570923847277195e-01 2.875133730023149425e-02
2.509437499079500977e-01 2.875133730023149425e-02
2.517304074311725315e-01 2.875133730023149425e-02
2.525170649543949652e-01 2.875133730023149425e-02
2.533037224776173435e-01 2.875133730023149425e-02
2.540903800008397773e-01 2.875133730023149425e-02
2.548770375240621555e-01 2.875133730023149425e-02
2.556636950472845893e-01 2.875133730023171630e-02
2.564503525705070230e-01 2.875133730023171630e-02
2.572370100937294013e-01 2.875133730023216039e-02
2.580236676169518351e-01 2.875133730023304857e-02
2.588103251401742688e-01 2.875133730023571310e-02
2.595969826633966471e-01 2.875133730024082013e-02
2.603836401866190808e-01 2.875133730025525303e-02
2.611702977098415146e-01 2.875133730028145429e-02
2.619569552330638929e-01 2.875133730035250856e-02
2.627436127562863266e-01 2.875133730047796377e-02
2.635302702795087604e-01 2.875133730079548755e-02
2.643169278027311386e-01 2.875133730134216137e-02
2.651035853259535724e-01 2.875133730263446097e-02
2.658902428491760062e-01 2.875133730480605720e-02
2.666769003723983844e-01 2.875133730961221268e-02
2.674635578956208182e-01 2.875133731750767474e-02
2.682502154188431964e-01 2.875133733387569279e-02
2.690368729420656302e-01 2.875133736022683628e-02
2.698235304652880640e-01 2.875133741148294675e-02
2.706101879885104422e-01 2.875133749256719717e-02
2.713968455117328760e-01 2.875133764099646605e-02
2.721835030349553097e-01 2.875133787239603222e-02
2.729701605581776880e-01 2.875133827299714007e-02
2.737568180814001217e-01 2.875133889025738299e-02
2.745434756046225555e-01 2.875133990810074813e-02
2.753301331278449338e-01 2.875134146210833741e-02
2.761167906510673675e-01 2.875134392527889382e-02
2.769034481742898013e-01 2.875134765788844859e-02
2.776901056975121795e-01 2.875135340222656488e-02
2.784767632207346133e-01 2.875136204593320421e-02
2.792634207439570471e-01 2.875137507927716385e-02
2.800500782671794253e-01 2.875139453930231070e-02
2.808367357904018591e-01 2.875142347253367703e-02
2.816233933136242373e-01 2.875146628097713375e-02
2.824100508368466711e-01 2.875152923610957423e-02
2.831967083600691049e-01 2.875162142477405425e-02
2.839833658832914831e-01 2.875175561559539794e-02
2.847700234065139169e-01 2.875194997051533363e-02
2.855566809297363506e-01 2.875222989387582473e-02
2.863433384529587289e-01 2.875263083799972641e-02
2.871299959761811627e-01 2.875320202620468280e-02
2.879166534994035964e-01 2.875401121570630991e-02
2.887033110226259747e-01 2.875515139821915866e-02
2.894899685458484084e-01 2.875674920853565908e-02
2.902766260690708422e-01 2.875897619290568308e-02
2.910632835922932204e-01 2.876206339731868233e-02
2.918499411155156542e-01 2.876631990902556169e-02
2.926365986387380325e-01 2.877215701572044537e-02
2.934232561619604662e-01 2.878011837895044778e-02
2.942099136851829000e-01 2.879091846486314665e-02
2.949965712084052782e-01 2.880549043081948035e-02
2.957832287316277120e-01 2.882504558762688518e-02
2.965698862548501458e-01 2.885114672929689483e-02
2.973565437780725240e-01 2.888579773957822283e-02
2.981432013012949578e-01 2.893155201871899784e-02
2.989298588245173915e-01 2.899164328605596808e-02
2.997165163477397698e-01 2.907014080211833829e-02
3.005031738709622036e-01 2.917213384963912581e-02
3.012898313941846373e-01 2.930394635656563551e-02
3.020764889174070156e-01 2.947338847304958875e-02
3.028631464406294493e-01 2.969004172413725051e-02
3.036498039638518831e-01 2.996559043054425331e-02
3.044364614870742614e-01 3.031418459887791350e-02
3.052231190102966951e-01 3.075285938259808560e-02
3.060097765335190734e-01 3.130197737110340661e-02
3.067964340567415071e-01 3.198573295068274369e-02
3.075830915799639409e-01 3.283266935223183580e-02
3.083697491031863192e-01 3.387624465165117726e-02
3.091564066264087529e-01 3.515540996563526477e-02
3.099430641496311867e-01 3.671518983056287766e-02
3.107297216728535649e-01 3.860728640423438662e-02
3.115163791960759987e-01 4.089061287642614673e-02
3.123030367192984325e-01 4.363184408848286289e-02
3.130896942425208107e-01 4.690583916404089670e-02
3.138763517657432445e-01 5.079600804932371538e-02
3.146630092889656782e-01 5.539453715605580086e-02
3.154496668121880565e-01 6.080242508082278619e-02
3.162363243354104902e-01 6.712935958647214818e-02
3.170229818586329240e-01 7.449329259217107868e-02
3.178096393818553023e-01 8.301975841713482573e-02
3.185962969050777360e-01 9.284084253788216223e-02
3.193829544283001143e-01 1.040937440442826212e-01
3.201696119515225480e-01 1.169189348544010798e-01
3.209562694747449818e-01 1.314578134347677008e-01
3.217429269979673601e-01 1.478498496146392061e-01
3.225295845211897938e-01 1.662291866854428424e-01
3.233162420444122276e-01 1.867206582832217077e-01
3.241028995676346058e-01 2.094352353961370650e-01
3.248895570908570396e-01 2.344649078671545706e-01
3.256762146140794734e-01 2.618770178901981271e-01
3.264628721373018516e-01 2.917081282086333438e-01
3.272495296605242854e-01 3.239574918894017053e-01
3.280361871837467191e-01 3.585802630255223722e-01
3.288228447069690974e-01 3.954806028450050803e-01
3.296095022301915312e-01 4.345048896009140460e-01
3.303961597534139649e-01 4.754352734131548353e-01
3.311828172766363432e-01 5.179838522471373885e-01
3.319694747998587769e-01 5.617877988343373818e-01
3.327561323230811552e-01 6.064057680153507324e-01
3.335427898463035890e-01 6.513159606107017385e-01
3.343294473695260227e-01 6.959161995837572778e-01
3.351161048927484010e-01 7.395263871655646248e-01
3.359027624159708347e-01 7.813936372156833343e-01
3.366894199391932685e-01 8.207003796252070327e-01
3.374760774624156467e-01 8.565756032569780132e-01
3.382627349856380805e-01 8.881093283346128686e-01
3.390493925088605143e-01 9.143702851186512603e-01
3.398360500320828925e-01 9.344266069625444260e-01
3.406227075553053263e-01 9.473692066937835499e-01
3.414093650785277601e-01 9.523373449639642718e-01
3.421960226017501383e-01 9.485457332816609188e-01
3.429826801249725721e-01 9.353123487199297426e-01
3.437693376481950058e-01 9.120860266492092361e-01
3.445559951714173841e-01 8.784727900384252663e-01
3.453426526946398178e-01 8.342597600447110295e-01
3.461293102178621961e-01 7.794355781704109809e-01
3.469159677410846299e-01 7.142061886270478777e-01
3.477026252643070636e-01 6.390050158942801595e-01
3.484892827875294419e-01 5.544966865201559347e-01
3.492759403107518756e-01 4.615736303718047662e-01
3.500625978339743094e-01 3.613452311628080338e-01
3.508492553571966877e-01 2.551193785647696277e-01
3.516359128804191214e-01 1.443767207789659057e-01
3.524225704036415552e-01 3.073815446164007703e-02
3.532092279268639334e-01 -8.407355114974168764e-02
3.539958854500863672e-01 -1.982767869575061681e-01
3.547825429733088010e-01 -3.100773487694677977e-01
3.555692004965311792e-01 -4.177162562354418407e-01
3.563558580197536130e-01 -5.195173679896019081e-01
3.571425155429760467e-01 -6.139329849127963534e-01
3.579291730661984250e-01 -6.995856919219807235e-01
3.587158305894208588e-01 -7.753048106689159891e-01
3.595024881126432370e-01 -8.401560328875611328e-01
3.602891456358656708e-01 -8.934631343622504440e-01
3.610758031590881045e-01 -9.348209776391869230e-01
3.618624606823104828e-01 -9.640994053388467488e-01
3.626491182055329165e-01 -9.814380254095632639e-01
3.634357757287553503e-01 -9.872322870121488236e-01
3.642224332519777286e-01 -9.821116147893644843e-01
3.650090907752001623e-01 -9.669106672732346031e-01
3.657957482984225961e-01 -9.426351177913618873e-01
3.665824058216449743e-01 -9.104234661738090928e-01
3.673690633448674081e-01 -8.715065480888588567e-01
3.681557208680898419e-01 -8.271664239446792077e-01
3.689423783913122201e-01 -7.786962738617682067e-01
3.697290359145346539e-01 -7.273627666817076287e-01
3.705156934377570321e-01 -6.743722178198283679e-01
3.713023509609794659e-01 -6.208415614907214497e-01
3.720890084842018997e-01 -5.677748954845426299e-01
3.728756660074242779e-01 -5.160460638995950644e-01
3.736623235306467117e-01 -4.663874365702604941e-01
3.744489810538691454e-01 -4.193847561068829721e-01
3.752356385770915237e-01 -3.754776619300209672e-01
3.760222961003139575e-01 -3.349653036227977498e-01
3.768089536235363912e-01 -2.980162700465300851e-01
3.775956111467587695e-01 -2.646819567698205367e-01
3.783822686699812032e-01 -2.349124279069236820e-01
3.791689261932036370e-01 -2.085738379933576025e-01
3.799555837164260153e-01 -1.854664638176412028e-01
3.807422412396484490e-01 -1.653425483595432066e-01
3.815288987628708828e-01 -1.479232117451861894e-01
3.823155562860932610e-01 -1.329138352292417169e-01
3.831022138093156948e-01 -1.200174725104888873e-01
3.838888713325380730e-01 -1.089460004833141538e-01
3.846755288557605068e-01 -9.942884480092639699e-02
3.854621863789829406e-01 -9.121926937351210185e-02
3.862488439022053188e-01 -8.409834225592549561e-02
3.870355014254277526e-01 -7.787677103964607550e-02
3.878221589486501863e-01 -7.239489021293354920e-02
3.886088164718725646e-01 -6.752113578488516676e-02
3.893954739950949984e-01 -6.314937819014476705e-02
3.901821315183174321e-01 -5.919545951045201981e-02
3.909687890415398104e-01 -5.559330112038840532e-02
3.917554465647622441e-01 -5.229090698071015009e-02
3.925421040879846779e-01 -4.924654388827387486e-02
3.933287616112070562e-01 -4.642531366487678834e-02
3.941154191344294899e-01 -4.379630877556994761e-02
3.949020766576519237e-01 -4.133043775509548379e-02
3.956887341808743019e-01 -3.899898840606652595e-02
3.964753917040967357e-01 -3.677289827958729607e-02
3.972620492273191140e-01 -3.462271716917442177e-02
3.980487067505415477e-01 -3.251912983170801574e-02
3.988353642737639815e-01 -3.043394544419508740e-02
3.996220217969863597e-01 -2.834138558417564902e-02
4.004086793202087935e-01 -2.621956046560669495e-02
4.011953368434312273e-01 -2.405193664603633152e-02
4.019819943666536055e-01 -2.182867930841481119e-02
4.027686518898760393e-01 -1.954775769718264389e-02
4.035553094130984730e-01 -1.721569158072711048e-02
4.043419669363208513e-01 -1.484787920130592465e-02
4.051286244595432851e-01 -1.246843967424315913e-02
4.059152819827657188e-01 -1.010959993206883567e-02
4.067019395059880971e-01 -7.810558482568841221e-03
4.074885970292105308e-01 -5.615947555090761156e-03
4.082752545524329646e-01 -3.573867247138817760e-03
4.090619120756553428e-01 -1.733652085767256601e-03
4.098485695988777766e-01 -1.433497488571022771e-04
4.106352271221001549e-01 1.152893597415216576e-03
4.114218846453225886e-01 2.117502932149406547e-03
4.122085421685450224e-01 2.722067905044145419e-03
4.129951996917674006e-01 2.949774233294011339e-03
4.137818572149898344e-01 2.797567350280916187e-03
4.145685147382122682e-01 2.277932708272478735e-03
4.153551722614346464e-01 1.420253203871846281e-03
4.161418297846570802e-01 2.716103971742711565e-04
4.169284873078795139e-01 -1.102994871508333752e-03
4.177151448311018922e-01 -2.621099260813664067e-03
4.185018023543243260e-01 -4.183902191393862324e-03
4.192884598775467597e-01 -5.678120603344383177e-03
4.200751174007691380e-01 -6.978540782986542013e-03
4.208617749239915717e-01 -7.951248562671042741e-03
4.216484324472140055e-01 -8.457473933042858327e-03
4.224350899704363838e-01 -8.357955948226414300e-03
4.232217474936588175e-01 -7.517721290600243300e-03
4.240084050168811958e-01 -5.811104746286099854e-03
4.247950625401036295e-01 -3.126841345633901703e-03
4.255817200633260633e-01 6.269515572385753188e-04
4.263683775865484415e-01 5.518145118404094163e-03
4.271550351097708753e-01 1.158650364882829464e-02
4.279416926329933091e-01 1.884036556147261621e-02
4.287283501562156873e-01 2.725425756507426911e-02
4.295150076794381211e-01 3.676763981095620970e-02
4.303016652026605549e-01 4.728486858132296966e-02
4.310883227258829331e-01 5.867647675756293424e-02
4.318749802491053669e-01 7.078176242749489866e-02
4.326616377723278006e-01 8.341265707066258805e-02
4.334482952955501789e-01 9.635875094198298463e-02
4.342349528187726126e-01 1.093933066589272141e-01
4.350216103419950464e-01 1.222800552210874248e-01
4.358082678652174247e-01 1.347804823635054827e-01
4.365949253884398584e-01 1.466613245957739675e-01
4.373815829116622367e-01 1.577019493764131308e-01
4.381682404348846704e-01 1.677013299260732282e-01
4.389548979581071042e-01 1.764842837947115939e-01
4.397415554813294825e-01 1.839067422191293932e-01
4.405282130045519162e-01 1.898598106268944985e-01
4.413148705277743500e-01 1.942724776521889130e-01
4.421015280509967282e-01 1.971128695447659229e-01
4.428881855742191620e-01 1.983880304870686562e-01
4.436748430974415958e-01 1.981422854470873407e-01
4.444615006206639740e-01 1.964542825027200124e-01
4.452481581438864078e-01 1.934329049426442015e-01
4.460348156671088415e-01 1.892122624091183702e-01
4.468214731903312198e-01 1.839460290551473420e-01
4.476081307135536536e-01 1.778013895054446625e-01
4.483947882367760318e-01 1.709528810976070901e-01
4.491814457599984656e-01 1.635764013661245020e-01
4.499681032832208993e-01 1.558436216308296540e-01
4.507547608064432776e-01 1.479170114733507901e-01
4.515414183296657114e-01 1.399456492168595911e-01
4.523280758528881451e-01 1.320619279424444237e-01
4.531147333761105234e-01 1.243792140513200195e-01
4.539013908993329571e-01 1.169904737415286000e-01
4.546880484225553909e-01 1.099678315817955720e-01
4.554747059457777691e-01 1.033629802685540611e-01
4.562613634690002029e-01 9.720832814723867621e-02
4.570480209922226367e-01 9.151875057280234316e-02
4.578346785154450149e-01 8.629379423761607271e-02
4.586213360386674487e-01 8.152017417268497823e-02
4.594079935618898825e-01 7.717441427449012181e-02
4.601946510851122607e-01 7.322549003931166922e-02
4.609813086083346945e-01 6.963735996359243785e-02
4.617679661315570727e-01 6.637126337632293094e-02
4.625546236547795065e-01 6.338773670881581168e-02
4.633412811780019402e-01 6.064827977352327260e-02
4.641279387012243185e-01 5.811666558607297972e-02
4.649145962244467523e-01 5.575986857616554992e-02
4.657012537476691860e-01 5.354865677730313855e-02
4.664879112708915643e-01 5.145787778950050573e-02
4.672745687941139980e-01 4.946646982498847933e-02
4.680612263173364318e-01 4.755726809864802007e-02
4.688478838405588101e-01 4.571665907523980721e-02
4.696345413637812438e-01 4.393414526044070456e-02