0.000000000000000000e+00 1.322788803399581603e-01
7.868847933080908323e-04 1.312634306556734742e-01
1.573769586616181665e-03 1.312634306556734742e-01
2.360654379924272388e-03 1.312634306556734742e-01
3.147539173232363329e-03 1.312634306556734742e-01
3.934423966540453836e-03 1.312634306556734742e-01
4.721308759848544777e-03 1.312634306556734742e-01
5.508193553156635718e-03 1.312634306556734742e-01
6.295078346464726658e-03 1.312634306556734742e-01
7.081963139772817599e-03 1.312634306556734742e-01
7.868847933080907672e-03 1.312634306556734742e-01
8.655732726388998613e-03 1.312634306556734742e-01
9.442617519697089554e-03 1.312634306556734742e-01
1.022950231300518049e-02 1.312634306556734742e-01
1.101638710631327144e-02 1.312634306556734742e-01
1.180327189962136238e-02 1.312634306556734742e-01
1.259015669292945332e-02 1.312634306556734742e-01
1.337704148623754426e-02 1.312634306556734742e-01
1.416392627954563520e-02 1.312634306556734742e-01
1.495081107285372614e-02 1.312634306556734742e-01
1.573769586616181534e-02 1.312634306556734742e-01
1.652458065946990629e-02 1.312634306556734742e-01
1.731146545277799723e-02 1.312634306556734742e-01
1.809835024608608817e-02 1.312634306556734742e-01
1.888523503939417911e-02 1.312634306556734742e-01
1.967211983270227005e-02 1.312634306556734742e-01
2.045900462601036099e-02 1.312634306556734742e-01
2.124588941931845193e-02 1.312634306556734742e-01
2.203277421262654287e-02 1.312634306556734742e-01
2.281965900593463381e-02 1.312634306556734742e-01
2.360654379924272475e-02 1.312634306556734742e-01
2.439342859255081569e-02 1.312634306556734742e-01
2.518031338585890663e-02 1.312634306556734742e-01
2.596719817916699757e-02 1.312634306556734742e-01
2.675408297247508851e-02 1.312634306556734742e-01
2.754096776578317946e-02 1.312634306556734742e-01
2.832785255909127040e-02 1.312634306556734742e-01
2.911473735239936134e-02 1.312634306556734742e-01
2.990162214570745228e-02 1.312634306556734742e-01
3.068850693901554322e-02 1.312634306556734742e-01
3.147539173232363069e-02 1.312634306556734742e-01
3.226227652563172510e-02 1.312634306556734742e-01
3.304916131893981257e-02 1.312634306556734742e-01
3.383604611224790698e-02 1.312634306556734742e-01
3.462293090555599445e-02 1.312634306556734742e-01
3.540981569886408886e-02 1.312634306556734742e-01
3.619670049217217633e-02 1.312634306556734742e-01
3.698358528548027074e-02 1.312634306556734742e-01
3.777047007878835821e-02 1.312634306556734742e-01
3.855735487209645262e-02 1.312634306556734742e-01
3.934423966540454010e-02 1.312634306556734742e-01
4.013112445871263451e-02 1.312634306556734742e-01
4.091800925202072198e-02 1.312634306556734742e-01
4.170489404532881639e-02 1.312634306556734742e-01
4.249177883863690386e-02 1.312634306556734742e-01
4.327866363194499827e-02 1.312634306556734742e-01
4.406554842525308574e-02 1.312634306556734742e-01
4.485243321856118015e-02 1.312634306556734742e-01
4.563931801186926762e-02 1.312634306556734742e-01
4.642620280517736203e-02 1.312634306556734742e-01
4.721308759848544950e-02 1.312634306556734742e-01
4.799997239179354391e-02 1.312634306556734742e-01
4.878685718510163138e-02 1.312634306556734742e-01
4.957374197840972579e-02 1.312634306556734742e-01
5.036062677171781327e-02 1.312634306556734742e-01
5.114751156502590074e-02 1.312634306556734742e-01
5.193439635833399515e-02 1.312634306556734742e-01
5.272128115164208262e-02 1.312634306556734742e-01
5.350816594495017703e-02 1.312634306556734742e-01
5.429505073825826450e-02 1.312634306556734742e-01
5.508193553156635891e-02 1.312634306556734742e-01
5.586882032487444638e-02 1.312634306556734742e-01
5.665570511818254079e-02 1.312634306556734742e-01
5.744258991149062826e-02 1.312634306556734742e-01
5.822947470479872267e-02 1.312634306556734742e-01
5.901635949810681014e-02 1.312634306556734742e-01
5.980324429141490455e-02 1.312634306556734742e-01
6.059012908472299203e-02 1.312634306556734742e-01
6.137701387803108644e-02 1.312634306556734742e-01
6.216389867133917391e-02 1.312634306556734742e-01
6.295078346464726138e-02 1.312634306556734742e-01
6.373766825795536273e-02 1.312634306556734742e-01
6.452455305126345020e-02 1.312634306556734742e-01
6.531143784457153767e-02 1.312634306556734742e-01
6.609832263787962514e-02 1.312634306556734742e-01
6.688520743118772649e-02 1.312634306556734742e-01
6.767209222449581396e-02 1.312634306556734742e-01
6.845897701780390143e-02 1.312634306556734742e-01
6.924586181111198890e-02 1.312634306556734742e-01
7.003274660442009025e-02 1.312634306556734742e-01
7.081963139772817772e-02 1.312634306556734742e-01
7.160651619103626520e-02 1.312634306556734742e-01
7.239340098434435267e-02 1.312634306556734742e-01
7.318028577765245402e-02 1.312634306556734742e-01
7.396717057096054149e-02 1.312634306556734742e-01
7.475405536426862896e-02 1.312634306556734742e-01
7.554094015757671643e-02 1.312634306556734742e-01
7.632782495088480390e-02 1.312634306556734742e-01
7.711470974419290525e-02 1.312634306556734742e-01
7.790159453750099272e-02 1.312634306556734742e-01
7.868847933080908019e-02 1.312634306556734742e-01
7.947536412411716766e-02 1.312634306556734742e-01
8.026224891742526901e-02 1.312634306556734742e-01
8.104913371073335648e-02 1.312634306556734742e-01
8.183601850404144396e-02 1.312634306556734742e-01
8.262290329734953143e-02 1.312634306556734742e-01
8.340978809065763278e-02 1.312634306556734742e-01
8.419667288396572025e-02 1.312634306556734742e-01
8.498355767727380772e-02 1.312634306556734742e-01
8.577044247058189519e-02 1.312634306556734742e-01
8.655732726388999654e-02 1.312634306556734742e-01
8.734421205719808401e-02 1.312634306556734742e-01
8.813109685050617148e-02 1.312634306556734742e-01
8.891798164381425895e-02 1.312634306556734742e-01
8.970486643712236030e-02 1.312634306556734742e-01
9.049175123043044777e-02 1.312634306556734742e-01
9.127863602373853524e-02 1.312634306556734742e-01
9.206552081704662271e-02 1.312634306556734742e-01
9.285240561035472406e-02 1.312634306556734742e-01
9.363929040366281153e-02 1.312634306556734742e-01
9.442617519697089901e-02 1.312634306556734742e-01
9.521305999027898648e-02 1.312634306556734742e-01
9.599994478358708783e-02 1.312634306556734742e-01
9.678682957689517530e-02 1.312634306556734742e-01
9.757371437020326277e-02 1.312634306556734742e-01
9.836059916351135024e-02 1.312634306556734742e-01
9.914748395681945159e-02 1.312634306556734742e-01
9.993436875012753906e-02 1.312634306556734742e-01
1.007212535434356265e-01 1.312634306556734742e-01
1.015081383367437140e-01 1.312634306556734742e-01
1.022950231300518015e-01 1.312634306556734742e-01
1.030819079233599028e-01 1.312634306556734742e-01
1.038687927166679903e-01 1.312634306556734742e-01
1.046556775099760778e-01 1.312634306556734742e-01
1.054425623032841652e-01 1.312634306556734742e-01
1.062294470965922666e-01 1.312634306556734742e-01
1.070163318899003541e-01 1.312634306556734742e-01
1.078032166832084415e-01 1.312634306556734742e-01
1.085901014765165290e-01 1.312634306556734742e-01
1.093769862698246303e-01 1.312634306556734742e-01
1.101638710631327178e-01 1.312634306556734742e-01
1.109507558564408053e-01 1.312634306556734742e-01
1.117376406497488928e-01 1.312634306556734742e-01
1.125245254430569941e-01 1.312634306556734742e-01
1.133114102363650816e-01 1.312634306556734742e-01
1.140982950296731691e-01 1.312634306556734742e-01
1.148851798229812565e-01 1.312634306556734742e-01
1.156720646162893579e-01 1.312634306556734742e-01
1.164589494095974453e-01 1.312634306556734742e-01
1.172458342029055328e-01 1.312634306556734742e-01
1.180327189962136203e-01 1.312634306556734742e-01
1.188196037895217216e-01 1.312634306556734742e-01
1.196064885828298091e-01 1.312634306556734742e-01
1.203933733761378966e-01 1.312634306556734742e-01
1.211802581694459841e-01 1.312634306556734742e-01
1.219671429627540854e-01 1.312634306556734742e-01
1.227540277560621729e-01 1.312634306556734742e-01
1.235409125493702603e-01 1.312634306556734742e-01
1.243277973426783478e-01 1.312634306556734742e-01
1.251146821359864492e-01 1.312634306556734742e-01
1.259015669292945228e-01 1.312634306556734742e-01
1.266884517226026241e-01 1.312634306556734742e-01
1.274753365159107255e-01 1.312634306556734742e-01
1.282622213092187990e-01 1.312634306556734742e-01
1.290491061025269004e-01 1.312634306556734742e-01
1.298359908958349740e-01 1.312634306556734742e-01
1.306228756891430753e-01 1.312634306556734742e-01
1.314097604824511767e-01 1.312634306556734742e-01
1.321966452757592503e-01 1.312634306556734742e-01
1.329835300690673516e-01 1.312634306556734742e-01
1.337704148623754530e-01 1.312634306556734742e-01
1.345572996556835266e-01 1.312634306556734742e-01
1.353441844489916279e-01 1.312634306556734742e-01
1.361310692422997015e-01 1.312634306556734742e-01
1.369179540356078029e-01 1.312634306556734742e-01
1.377048388289159042e-01 1.312634306556734742e-01
1.384917236222239778e-01 1.312634306556734742e-01
1.392786084155320792e-01 1.312634306556734742e-01
1.400654932088401805e-01 1.312634306556734742e-01
1.408523780021482541e-01 1.312634306556734742e-01
1.416392627954563554e-01 1.312634306556734742e-01
1.424261475887644290e-01 1.312634306556734742e-01
1.432130323820725304e-01 1.312634306556734742e-01
1.439999171753806317e-01 1.312634306556734742e-01
1.447868019686887053e-01 1.312634306556734742e-01
1.455736867619968067e-01 1.312634306556734742e-01
1.463605715553049080e-01 1.312634306556734742e-01
1.471474563486129816e-01 1.312634306556734742e-01
1.479343411419210830e-01 1.312634306556734742e-01
1.487212259352291566e-01 1.312634306556734742e-01
1.495081107285372579e-01 1.312634306556734742e-01
1.502949955218453593e-01 1.312634306556734742e-01
1.510818803151534329e-01 1.312634306556734742e-01
1.518687651084615342e-01 1.312634306556734742e-01
1.526556499017696078e-01 1.312634306556734742e-01
1.534425346950777092e-01 1.312634306556734742e-01
1.542294194883858105e-01 1.312634306556734742e-01
1.550163042816938841e-01 1.312634306556734742e-01
1.558031890750019854e-01 1.312634306556734742e-01
1.565900738683100868e-01 1.312634306556734742e-01
1.573769586616181604e-01 1.312634306556734742e-01
1.581638434549262617e-01 1.312634306556734742e-01
1.589507282482343353e-01 1.312634306556734742e-01
1.597376130415424367e-01 1.312634306556734742e-01
1.605244978348505380e-01 1.312634306556734742e-01
1.613113826281586116e-01 1.312634306556734742e-01
1.620982674214667130e-01 1.312634306556734742e-01
1.628851522147748143e-01 1.312634306556734742e-01
1.636720370080828879e-01 1.312634306556734742e-01
1.644589218013909893e-01 1.312634306556734742e-01
1.652458065946990629e-01 1.312634306556734742e-01
1.660326913880071642e-01 1.312634306556734742e-01
1.668195761813152656e-01 1.312634306556734742e-01
1.676064609746233391e-01 1.312634306556734742e-01
1.683933457679314405e-01 1.312634306556734742e-01
1.691802305612395418e-01 1.312634306556734742e-01
1.699671153545476154e-01 1.312634306556734742e-01
1.707540001478557168e-01 1.312634306556734742e-01
1.715408849411637904e-01 1.312634306556734742e-01
1.723277697344718917e-01 1.312634306556734742e-01
1.731146545277799931e-01 1.312634306556734742e-01
1.739015393210880667e-01 1.312634306556734742e-01
1.746884241143961680e-01 1.312634306556734742e-01
1.754753089077042694e-01 1.312634306556734742e-01
1.762621937010123430e-01 1.312634306556734742e-01
1.770490784943204443e-01 1.312634306556734742e-01
1.778359632876285179e-01 1.312634306556734742e-01
1.786228480809366193e-01 1.312634306556734742e-01
1.794097328742447206e-01 1.312634306556734742e-01
1.801966176675527942e-01 1.312634306556734742e-01
1.809835024608608955e-01 1.312634306556734742e-01
1.817703872541689691e-01 1.312634306556734742e-01
1.825572720474770705e-01 1.312634306556734742e-01
1.833441568407851718e-01 1.312634306556734742e-01
1.841310416340932454e-01 1.312634306556734742e-01
1.849179264274013468e-01 1.312634306556734742e-01
1.857048112207094481e-01 1.312634306556734742e-01
1.864916960140175217e-01 1.312634306556734742e-01
1.872785808073256231e-01 1.312634306556734742e-01
1.880654656006336967e-01 1.312634306556734742e-01
1.888523503939417980e-01 1.312634306556734742e-01
1.896392351872498994e-01 1.312634306556734742e-01
1.904261199805579730e-01 1.312634306556734742e-01
1.912130047738660743e-01 1.312634306556734742e-01
1.919998895671741757e-01 1.312634306556734742e-01
1.927867743604822492e-01 1.312634306556734742e-01
1.935736591537903506e-01 1.312634306556734742e-01
1.943605439470984242e-01 1.312634306556734742e-01
1.951474287404065255e-01 1.312634306556734742e-01
1.959343135337146269e-01 1.312634306556734742e-01
1.967211983270227005e-01 1.312634306556734742e-01
1.975080831203308018e-01 1.312634306556734742e-01
1.982949679136389032e-01 1.312634306556734742e-01
1.990818527069469768e-01 1.312634306556734742e-01
1.998687375002550781e-01 1.312634306556734742e-01
2.006556222935631517e-01 1.312634306556734742e-01
2.014425070868712531e-01 1.312634306556734742e-01
2.022293918801793544e-01 1.312634306556734742e-01
2.030162766734874280e-01 1.312634306556734742e-01
2.038031614667955294e-01 1.312634306556734742e-01
2.045900462601036029e-01 1.312634306556734742e-01
2.053769310534117043e-01 1.312634306556734742e-01
2.061638158467198056e-01 1.312634306556734742e-01
2.069507006400278792e-01 1.312634306556734742e-01
2.077375854333359806e-01 1.312634306556734742e-01
2.085244702266440819e-01 1.312634306556734742e-01
2.093113550199521555e-01 1.312634306556734742e-01
2.100982398132602569e-01 1.312634306556734742e-01
2.108851246065683305e-01 1.312634306556734742e-01
2.116720093998764318e-01 1.312634306556734742e-01
2.124588941931845332e-01 1.312634306556734742e-01
2.132457789864926068e-01 1.312634306556734742e-01
2.140326637798007081e-01 1.312634306556734742e-01
2.148195485731088095e-01 1.312634306556734742e-01
2.156064333664168831e-01 1.312634306556734742e-01
2.163933181597249844e-01 1.312634306556734742e-01
2.171802029530330580e-01 1.312634306556734742e-01
2.179670877463411593e-01 1.312634306556734742e-01
2.187539725396492607e-01 1.312634306556734742e-01
2.195408573329573343e-01 1.312634306556734742e-01
2.203277421262654356e-01 1.312634306556734742e-01
2.211146269195735370e-01 1.312634306556734742e-01
2.219015117128816106e-01 1.312634306556734742e-01
2.226883965061897119e-01 1.312634306556734742e-01
2.234752812994977855e-01 1.312634306556734742e-01
2.242621660928058869e-01 1.312634306556734742e-01
2.250490508861139882e-01 1.312634306556734742e-01
2.258359356794220618e-01 1.312634306556734742e-01
2.266228204727301632e-01 1.312634306556734742e-01
2.274097052660382368e-01 1.312634306556734742e-01
2.281965900593463381e-01 1.312634306556734742e-01
2.289834748526544395e-01 1.312634306556734742e-01
2.297703596459625131e-01 1.312634306556734742e-01
2.305572444392706144e-01 1.312634306556734742e-01
2.313441292325787157e-01 1.312634306556734742e-01
2.321310140258867893e-01 1.312634306556734742e-01
2.329178988191948907e-01 1.312634306556734742e-01
2.337047836125029643e-01 1.312634306556734742e-01
2.344916684058110656e-01 1.312634306556734742e-01
2.352785531991191670e-01 1.312634306556734742e-01
2.360654379924272406e-01 1.312634306556734742e-01
2.368523227857353419e-01 1.312634306556734742e-01
2.376392075790434433e-01 1.312634306556734742e-01
2.384260923723515169e-01 1.312634306556734742e-01
2.392129771656596182e-01 1.312634306556734742e-01
2.399998619589676918e-01 1.312634306556734742e-01
2.407867467522757932e-01 1.312634306556734742e-01
2.415736315455838945e-01 1.312634306556734742e-01
2.423605163388919681e-01 1.312634306556734742e-01
2.431474011322000695e-01 1.312634306556734742e-01
2.439342859255081708e-01 1.312634306556734742e-01
2.447211707188162444e-01 1.312634306556734742e-01
2.455080555121243457e-01 1.312634306556734742e-01
2.462949403054324193e-01 1.312634306556734742e-01
2.470818250987405207e-01 1.312634306556734742e-01
2.478687098920486220e-01 1.312634306556734742e-01
2.486555946853566956e-01 1.312634306556734742e-01
2.494424794786647970e-01 1.312634306556734742e-01
2.502293642719728983e-01 1.312634306556734742e-01
2.510162490652809719e-01 1.312634306556734742e-01
2.518031338585890455e-01 1.312634306556734742e-01
2.525900186518971746e-01 1.312634306556734742e-01
2.533769034452052482e-01 1.312634306556734742e-01
2.541637882385133218e-01 1.312634306556734742e-01
2.549506730318214509e-01 1.312634306556734742e-01
2.557375578251295245e-01 1.312634306556734742e-01
2.565244426184375981e-01 1.312634306556734742e-01
2.573113274117457272e-01 1.312634306556734742e-01
2.580982122050538008e-01 1.312634306556734742e-01
2.588850969983618744e-01 1.312634306556734742e-01
2.596719817916699480e-01 1.312634306556734742e-01
2.604588665849780771e-01 1.312634306556736963e-01
2.612457513782861507e-01 1.312634306556745845e-01
2.620326361715942243e-01 1.312634306556756947e-01
2.628195209649023534e-01 1.312634306556828001e-01
2.636064057582104270e-01 1.312634306556890174e-01
2.643932905515185006e-01 1.312634306557307617e-01
2.651801753448266297e-01 1.312634306557693975e-01
2.659670601381347033e-01 1.312634306559814501e-01
2.667539449314427769e-01 1.312634306561868414e-01
2.675408297247509060e-01 1.312634306571325293e-01
2.683277145180589796e-01 1.312634306580966470e-01
2.691145993113670531e-01 1.312634306618025715e-01
2.699014841046751823e-01 1.312634306658035932e-01
2.706883688979832558e-01 1.312634306786202298e-01
2.714752536912913294e-01 1.312634306933651018e-01
2.722621384845994030e-01 1.312634307327291694e-01
2.730490232779075321e-01 1.312634307812408085e-01
2.738359080712156057e-01 1.312634308897073776e-01
2.746227928645236793e-01 1.312634310332811971e-01
2.754096776578318084e-01 1.312634313060174751e-01
2.761965624511398820e-01 1.312634316925105349e-01
2.769834472444479556e-01 1.312634323345616139e-01
2.777703320377560847e-01 1.312634332959461414e-01
2.785572168310641583e-01 1.312634347560028836e-01
2.793441016243722319e-01 1.312634370107157444e-01
2.801309864176803610e-01 1.312634403020305207e-01
2.809178712109884346e-01 1.312634453942547186e-01
2.817047560042965082e-01 1.312634528075247164e-01
2.824916407976045818e-01 1.312634640603473901e-01
2.832785255909127109e-01 1.312634805872874288e-01
2.840654103842207845e-01 1.312635050637243062e-01
2.848522951775288581e-01 1.312635410498050881e-01
2.856391799708369872e-01 1.312635933230568153e-01
2.864260647641450608e-01 1.312636693737982974e-01
2.872129495574531344e-01 1.312637784430672472e-01
2.879998343507612635e-01 1.312639346371946569e-01
2.887867191440693371e-01 1.312641563701391068e-01
2.895736039373774107e-01 1.312644692160149784e-01
2.903604887306855398e-01 1.312649084055896864e-01
2.911473735239936134e-01 1.312655203291757111e-01
2.919342583173016870e-01 1.312663685359025667e-01
2.927211431106098161e-01 1.312675363237536530e-01
2.935080279039178897e-01 1.312691337843325812e-01
2.942949126972259632e-01 1.312713055268384110e-01
2.950817974905340368e-01 1.312742378256921416e-01
2.958686822838421659e-01 1.312781718674582709e-01
2.966555670771502395e-01 1.312834149458930177e-01
2.974424518704583131e-01 1.312903559199587455e-01
2.982293366637664422e-01 1.312994842516559402e-01
2.990162214570745158e-01 1.313114076817853970e-01
2.998031062503825894e-01 1.313268763219863633e-01
3.005899910436907185e-01 1.313468066915897126e-01
3.013768758369987921e-01 1.313723063348799514e-01
3.021637606303068657e-01 1.314047025609237362e-01
3.029506454236149948e-01 1.314455677477084361e-01
3.037375302169230684e-01 1.314967433738039038e-01
3.045244150102311420e-01 1.315603639617273224e-01
3.053112998035392156e-01 1.316388676628854615e-01
3.060981845968473447e-01 1.317350051908900976e-01
3.068850693901554183e-01 1.318518353133510956e-01
3.076719541834634919e-01 1.319927004202929854e-01
3.084588389767716210e-01 1.321611877577155703e-01
3.092457237700796946e-01 1.323610700937531970e-01
3.100326085633877682e-01 1.325962131861329052e-01
3.108194933566958973e-01 1.328704586934024157e-01
3.116063781500039709e-01 1.331874764220273288e-01
3.123932629433120445e-01 1.335505933884177932e-01
3.131801477366201736e-01 1.339625544060421003e-01
3.139670325299282472e-01 1.344253208157260016e-01
3.147539173232363208e-01 1.349397857829299774e-01
3.155408021165444499e-01 1.355055005643077681e-01
3.163276869098525235e-01 1.361204039320884629e-01
3.171145717031605971e-01 1.367805286626881944e-01
3.179014564964686707e-01 1.374797552264732659e-01
3.186883412897767998e-01 1.382096346172387857e-01
3.194752260830848734e-01 1.389592460839477184e-01
3.202621108763929469e-01 1.397150761362293547e-01
3.210489956697010761e-01 1.404611641366635411e-01
3.218358804630091496e-01 1.411790657365099566e-01
3.226227652563172232e-01 1.418483807308421607e-01
3.234096500496253523e-01 1.424469844106748262e-01
3.241965348429334259e-01 1.429517362450472007e-01
3.249834196362414995e-01 1.433391234122223246e-01
3.257703044295496286e-01 1.435858883755671833e-01
3.265571892228577022e-01 1.436704037002043410e-01
3.273440740161657758e-01 1.435731560310211652e-01
3.281309588094738494e-01 1.432778815795374694e-01
3.289178436027819785e-01 1.427729755104150122e-01
3.297047283960900521e-01 1.420516727684060232e-01
3.304916131893981257e-01 1.411131436769241798e-01
3.312784979827062548e-01 1.399637544082419360e-01
3.320653827760143284e-01 1.386157692842153732e-01
3.328522675693224020e-01 1.370890526769747986e-01
3.336391523626305311e-01 1.354104307961652154e-01
3.344260371559386047e-01 1.336124259003075299e-01
3.352129219492466783e-01 1.317335434925401838e-01
3.359998067425548074e-01 1.298162885426259461e-01
3.367866915358628810e-01 1.279055327259759345e-01
3.375735763291709546e-01 1.260492483683239850e-01
3.383604611224790837e-01 1.242935729337202311e-01
3.391473459157871573e-01 1.226825324656704019e-01
3.399342307090952309e-01 1.212571746814701257e-01
3.407211155024033045e-01 1.200516014162196221e-01
3.415080002957114336e-01 1.190952608703161886e-01
3.422948850890195072e-01 1.184075839630578386e-01
3.430817698823275808e-01 1.180015716201932019e-01
3.438686546756357099e-01 1.178809307941655060e-01
3.446555394689437835e-01 1.180382316247696739e-01
3.454424242622518570e-01 1.184609119575288361e-01
3.462293090555599862e-01 1.191260014515511667e-01
3.470161938488680597e-01 1.200043337837413127e-01
3.478030786421761333e-01 1.210621248957692853e-01
3.485899634354842624e-01 1.222603155019665877e-01
3.493768482287923360e-01 1.235572316387678615e-01
3.501637330221004096e-01 1.249120861924202242e-01
3.509506178154085387e-01 1.262839597529843427e-01
3.517375026087166123e-01 1.276347796053496353e-01
3.525243874020246859e-01 1.289319377311552994e-01
3.533112721953327595e-01 1.301440187721347730e-01
3.540981569886408886e-01 1.312478928342066808e-01
3.548850417819489622e-01 1.322242473333556934e-01
3.556719265752570358e-01 1.330589963821420252e-01
3.564588113685651649e-01 1.337476412454186026e-01
3.572456961618732385e-01 1.342901945544794362e-01
3.580325809551813121e-01 1.346898819429782623e-01
3.588194657484894412e-01 1.349541392543649465e-01
3.596063505417975148e-01 1.350972770801543987e-01
3.603932353351055884e-01 1.351340168613257564e-01
3.611801201284137175e-01 1.350819160968064203e-01
3.619670049217217911e-01 1.349612460193605479e-01
3.627538897150298647e-01 1.347872333217348118e-01
3.635407745083379383e-01 1.345844053180311750e-01
3.643276593016460674e-01 1.343702423898021081e-01
3.651145440949541410e-01 1.341589168491317263e-01
3.659014288882622146e-01 1.339720747454360428e-01
3.666883136815703437e-01 1.338212384782386799e-01
3.674751984748784173e-01 1.337174305137349695e-01
3.682620832681864909e-01 1.336700352387047985e-01
3.690489680614946200e-01 1.336871340222116622e-01
3.698358528548026936e-01 1.337752738634772065e-01
3.706227376481107672e-01 1.339340346057678044e-01
3.714096224414188963e-01 1.341644719593566570e-01
3.721965072347269698e-01 1.344651632416340448e-01
3.729833920280350434e-01 1.348297050512496931e-01
3.737702768213431725e-01 1.352489549904281052e-01
3.745571616146512461e-01 1.357084096742162682e-01
3.753440464079593197e-01 1.361946825899900126e-01
3.761309312012673933e-01 1.366915312230274626e-01
3.769178159945755224e-01 1.371801096823939137e-01
3.777047007878835960e-01 1.376400536626307680e-01
3.784915855811916696e-01 1.380461112122324252e-01
3.792784703744997987e-01 1.383745461349963346e-01
3.800653551678078723e-01 1.386012978099004922e-01
3.808522399611159459e-01 1.386998697705590367e-01
3.816391247544240750e-01 1.386430688349902240e-01
3.824260095477321486e-01 1.384119985870819747e-01
3.832128943410402222e-01 1.379891081759565541e-01
3.839997791343483513e-01 1.373516825458256374e-01
3.847866639276564249e-01 1.364881168613514273e-01
3.855735487209644985e-01 1.353928161240114392e-01
3.863604335142725721e-01 1.340607703636460535e-01
3.871473183075807012e-01 1.324969895504148898e-01
3.879342031008887748e-01 1.307093237012562081e-01
3.887210878941968484e-01 1.287158129634966564e-01
3.895079726875049775e-01 1.265422411326080354e-01
3.902948574808130511e-01 1.242130198466298019e-01
3.910817422741211247e-01 1.217656706973631042e-01
3.918686270674292538e-01 1.192401351666547704e-01
3.926555118607373274e-01 1.166804073873721759e-01
3.934423966540454010e-01 1.141346990150335916e-01
3.942292814473535301e-01 1.116497378604912605e-01
3.950161662406616037e-01 1.092807479419553029e-01
3.958030510339696773e-01 1.070768211167072437e-01
3.965899358272778064e-01 1.050771742291900512e-01
3.973768206205858800e-01 1.033266892592918929e-01
3.981637054138939535e-01 1.018607826939164074e-01
3.989505902072020271e-01 1.007109805813557468e-01
3.997374750005101562e-01 9.989983410297531563e-02
4.005243597938182298e-01 9.943896205501778773e-02
4.013112445871263034e-01 9.933676823695081204e-02
4.020981293804344325e-01 9.958519255346964805e-02
4.028850141737425061e-01 1.001722472415806919e-01
4.036718989670505797e-01 1.010797326007673025e-01
4.044587837603587088e-01 1.022784025313390188e-01
4.052456685536667824e-01 1.037325490294187524e-01
4.060325533469748560e-01 1.054020816968495033e-01
4.068194381402829851e-01 1.072468569510771630e-01
4.076063229335910587e-01 1.092199874280594951e-01
4.083932077268991323e-01 1.112750112389266910e-01
4.091800925202072059e-01 1.133694127770363824e-01
4.099669773135153350e-01 1.154637930413875413e-01
4.107538621068234086e-01 1.175226886763272027e-01
4.115407469001314822e-01 1.195094237219598288e-01
4.123276316934396113e-01 1.213998311884705306e-01
4.131145164867476849e-01 1.231787641597072991e-01
4.139014012800557585e-01 1.248328201677273430e-01
4.146882860733638876e-01 1.263626586990482803e-01
4.154751708666719612e-01 1.277623869225270603e-01
4.162620556599800348e-01 1.290356851984080233e-01
4.170489404532881639e-01 1.302011255179840177e-01
4.178358252465962375e-01 1.312715785052325224e-01
4.186227100399043111e-01 1.322669351244816216e-01
4.194095948332124402e-01 1.332031506947115584e-01
4.201964796265205138e-01 1.340967762001441521e-01
4.209833644198285874e-01 1.349675536887973148e-01
4.217702492131366609e-01 1.358345019008955212e-01
4.225571340064447901e-01 1.367037264051678136e-01
4.233440187997528636e-01 1.375848854880374894e-01
4.241309035930609372e-01 1.384927218642415525e-01
4.249177883863690663e-01 1.394205768473260054e-01
4.257046731796771399e-01 1.403631107238718645e-01
4.264915579729852135e-01 1.413206000527418293e-01
4.272784427662933426e-01 1.422818122893738657e-01
4.280653275596014162e-01 1.432368764097589064e-01
4.288522123529094898e-01 1.441761128537155656e-01
4.296390971462176189e-01 1.450772373590687447e-01
4.304259819395256925e-01 1.459264751670990012e-01
4.312128667328337661e-01 1.467192205090606105e-01
4.319997515261418397e-01 1.474348165653143194e-01
4.327866363194499688e-01 1.480571378268107363e-01
4.335735211127580424e-01 1.485821316425290917e-01
4.343604059060661160e-01 1.490015012465997213e-01
4.351472906993742451e-01 1.493079816504472301e-01
4.359341754926823187e-01 1.494998815902595091e-01
4.367210602859903923e-01 1.495718188051007314e-01
4.375079450792985214e-01 1.495260483133866725e-01
4.382948298726065950e-01 1.493714412724702623e-01
4.390817146659146686e-01 1.491106781759403699e-01
4.398685994592227977e-01 1.487483647925420538e-01
4.406554842525308713e-01 1.482946859342246793e-01
4.414423690458389449e-01 1.477618527384476632e-01
4.422292538391470740e-01 1.471616987334540827e-01
4.430161386324551476e-01 1.465014064720049358e-01
4.438030234257632212e-01 1.457886318479910681e-01
4.445899082190712948e-01 1.450422446853258940e-01
4.453767930123794239e-01 1.442759878320907241e-01
4.461636778056874975e-01 1.434948912025946210e-01
4.469505625989955711e-01 1.427028718276464048e-01
4.477374473923037002e-01 1.419205512922234735e-01
4.485243321856117737e-01 1.411578152460433166e-01
4.493112169789198473e-01 1.404108221136592949e-01
4.500981017722279764e-01 1.396901946057358401e-01
4.508849865655360500e-01 1.390014734976408040e-01
4.516718713588441236e-01 1.383545082487722677e-01
4.524587561521522527e-01 1.377438756295890077e-01
4.532456409454603263e-01 1.371661630715930169e-01
4.540325257387683999e-01 1.366391964471631582e-01
4.548194105320764735e-01 1.361532044114839302e-01
4.556062953253846026e-01 1.356998469863635037e-01
4.563931801186926762e-01 1.352911242336873876e-01
4.571800649120007498e-01 1.349211257049804935e-01
4.579669497053088789e-01 1.345813279358829551e-01
4.587538344986169525e-01 1.342738563078438307e-01
4.595407192919250261e-01 1.339961898804644669e-01
4.603276040852331552e-01 1.337411111987234502e-01
4.611144888785412288e-01 1.335065995879527456e-01
4.619013736718493024e-01 1.332952900026014298e-01
4.626882584651574315e-01 1.330993267748887821e-01
4.634751432584655051e-01 1.329115152193638405e-01
4.642620280517735787e-01 1.327331333404568880e-01
4.650489128450817078e-01 1.325620217685650193e-01
4.658357976383897814e-01 1.323896581196362110e-01
4.666226824316978550e-01 1.322112012008695991e-01
4.674095672250059286e-01 1.320297320508405647e-01
4.681964520183140577e-01 1.318407738729652223e-01
4.689833368116221313e-01 1.316390534343208074e-01
4.697702216049302049e-01 1.314194856417871815e-01
4.705571063982383340e-01 1.311772014638559192e-01
4.713439911915464076e-01 1.309120240624079834e-01