0.000000000000000000e+00 4.752024555281810780e-01
7.868847933080908323e-04 1.158697095475802463e-01
1.573769586616181665e-03 1.158697095475802463e-01
2.360654379924272388e-03 1.158697095475802463e-01
3.147539173232363329e-03 1.158697095475802463e-01
3.934423966540453836e-03 1.158697095475802463e-01
4.721308759848544777e-03 1.158697095475802463e-01
5.508193553156635718e-03 1.158697095475802463e-01
6.295078346464726658e-03 1.158697095475802463e-01
7.081963139772817599e-03 1.158697095475802463e-01
7.868847933080907672e-03 1.158697095475802463e-01
8.655732726388998613e-03 1.158697095475802463e-01
9.442617519697089554e-03 1.158697095475802463e-01
1.022950231300518049e-02 1.158697095475802463e-01
1.101638710631327144e-02 1.158697095475802463e-01
1.180327189962136238e-02 1.158697095475802463e-01
1.259015669292945332e-02 1.158697095475802463e-01
1.337704148623754426e-02 1.158697095475802463e-01
1.416392627954563520e-02 1.158697095475802463e-01
1.495081107285372614e-02 1.158697095475802463e-01
1.573769586616181534e-02 1.158697095475802463e-01
1.652458065946990629e-02 1.158697095475802463e-01
1.731146545277799723e-02 1.158697095475802463e-01
1.809835024608608817e-02 1.158697095475802463e-01
1.888523503939417911e-02 1.158697095475802463e-01
1.967211983270227005e-02 1.158697095475802463e-01
2.045900462601036099e-02 1.158697095475802463e-01
2.124588941931845193e-02 1.158697095475802463e-01
2.203277421262654287e-02 1.158697095475802463e-01
2.281965900593463381e-02 1.158697095475802463e-01
2.360654379924272475e-02 1.158697095475802463e-01
2.439342859255081569e-02 1.158697095475802463e-01
2.518031338585890663e-02 1.158697095475802463e-01
2.596719817916699757e-02 1.158697095475802463e-01
2.675408297247508851e-02 1.158697095475802463e-01
2.754096776578317946e-02 1.158697095475802463e-01
2.832785255909127040e-02 1.158697095475802463e-01
2.911473735239936134e-02 1.158697095475802463e-01
2.990162214570745228e-02 1.158697095475802463e-01
3.068850693901554322e-02 1.158697095475802463e-01
3.147539173232363069e-02 1.158697095475802463e-01
3.226227652563172510e-02 1.158697095475802463e-01
3.304916131893981257e-02 1.158697095475802463e-01
3.383604611224790698e-02 1.158697095475802463e-01
3.462293090555599445e-02 1.158697095475802463e-01
3.540981569886408886e-02 1.158697095475802463e-01
3.619670049217217633e-02 1.158697095475802463e-01
3.698358528548027074e-02 1.158697095475802463e-01
3.777047007878835821e-02 1.158697095475802463e-01
3.855735487209645262e-02 1.158697095475802463e-01
3.934423966540454010e-02 1.158697095475802463e-01
4.013112445871263451e-02 1.158697095475802463e-01
4.091800925202072198e-02 1.158697095475802463e-01
4.170489404532881639e-02 1.158697095475802463e-01
4.249177883863690386e-02 1.158697095475802463e-01
4.327866363194499827e-02 1.158697095475802463e-01
4.406554842525308574e-02 1.158697095475802463e-01
4.485243321856118015e-02 1.158697095475802463e-01
4.563931801186926762e-02 1.158697095475802463e-01
4.642620280517736203e-02 1.158697095475802463e-01
4.721308759848544950e-02 1.158697095475802463e-01
4.799997239179354391e-02 1.158697095475802463e-01
4.878685718510163138e-02 1.158697095475802463e-01
4.957374197840972579e-02 1.158697095475802463e-01
5.036062677171781327e-02 1.158697095475802463e-01
5.114751156502590074e-02 1.158697095475802463e-01
5.193439635833399515e-02 1.158697095475802463e-01
5.272128115164208262e-02 1.158697095475802463e-01
5.350816594495017703e-02 1.158697095475802463e-01
5.429505073825826450e-02 1.158697095475802463e-01
5.508193553156635891e-02 1.158697095475802463e-01
5.586882032487444638e-02 1.158697095475802463e-01
5.665570511818254079e-02 1.158697095475802463e-01
5.744258991149062826e-02 1.158697095475802463e-01
5.822947470479872267e-02 1.158697095475802463e-01
5.901635949810681014e-02 1.158697095475802463e-01
5.980324429141490455e-02 1.158697095475802463e-01
6.059012908472299203e-02 1.158697095475802463e-01
6.137701387803108644e-02 1.158697095475802463e-01
6.216389867133917391e-02 1.158697095475802463e-01
6.295078346464726138e-02 1.158697095475802463e-01
6.373766825795536273e-02 1.158697095475802463e-01
6.452455305126345020e-02 1.158697095475802463e-01
6.531143784457153767e-02 1.158697095475802463e-01
6.609832263787962514e-02 1.158697095475802463e-01
6.688520743118772649e-02 1.158697095475802463e-01
6.767209222449581396e-02 1.158697095475802463e-01
6.845897701780390143e-02 1.158697095475802463e-01
6.924586181111198890e-02 1.158697095475802463e-01
7.003274660442009025e-02 1.158697095475802463e-01
7.081963139772817772e-02 1.158697095475802463e-01
7.160651619103626520e-02 1.158697095475802463e-01
7.239340098434435267e-02 1.158697095475802463e-01
7.318028577765245402e-02 1.158697095475802463e-01
7.396717057096054149e-02 1.158697095475802463e-01
7.475405536426862896e-02 1.158697095475802463e-01
7.554094015757671643e-02 1.158697095475802463e-01
7.632782495088480390e-02 1.158697095475802463e-01
7.711470974419290525e-02 1.158697095475802463e-01
7.790159453750099272e-02 1.158697095475802463e-01
7.868847933080908019e-02 1.158697095475802463e-01
7.947536412411716766e-02 1.158697095475802463e-01
8.026224891742526901e-02 1.158697095475802463e-01
8.104913371073335648e-02 1.158697095475802463e-01
8.183601850404144396e-02 1.158697095475802463e-01
8.262290329734953143e-02 1.158697095475802463e-01
8.340978809065763278e-02 1.158697095475802463e-01
8.419667288396572025e-02 1.158697095475802463e-01
8.498355767727380772e-02 1.158697095475802463e-01
8.577044247058189519e-02 1.158697095475802463e-01
8.655732726388999654e-02 1.158697095475802463e-01
8.734421205719808401e-02 1.158697095475802463e-01
8.813109685050617148e-02 1.158697095475802463e-01
8.891798164381425895e-02 1.158697095475802463e-01
8.970486643712236030e-02 1.158697095475802463e-01
9.049175123043044777e-02 1.158697095475802463e-01
9.127863602373853524e-02 1.158697095475802463e-01
9.206552081704662271e-02 1.158697095475802463e-01
9.285240561035472406e-02 1.158697095475802463e-01
9.363929040366281153e-02 1.158697095475802463e-01
9.442617519697089901e-02 1.158697095475802463e-01
9.521305999027898648e-02 1.158697095475802463e-01
9.599994478358708783e-02 1.158697095475802463e-01
9.678682957689517530e-02 1.158697095475802463e-01
9.757371437020326277e-02 1.158697095475802463e-01
9.836059916351135024e-02 1.158697095475802463e-01
9.914748395681945159e-02 1.158697095475802463e-01
9.993436875012753906e-02 1.158697095475802463e-01
1.007212535434356265e-01 1.158697095475802463e-01
1.015081383367437140e-01 1.158697095475802463e-01
1.022950231300518015e-01 1.158697095475802463e-01
1.030819079233599028e-01 1.158697095475802463e-01
1.038687927166679903e-01 1.158697095475802463e-01
1.046556775099760778e-01 1.158697095475802463e-01
1.054425623032841652e-01 1.158697095475802463e-01
1.062294470965922666e-01 1.158697095475802463e-01
1.070163318899003541e-01 1.158697095475802463e-01
1.078032166832084415e-01 1.158697095475802463e-01
1.085901014765165290e-01 1.158697095475802463e-01
1.093769862698246303e-01 1.158697095475802463e-01
1.101638710631327178e-01 1.158697095475802463e-01
1.109507558564408053e-01 1.158697095475802463e-01
1.117376406497488928e-01 1.158697095475802463e-01
1.125245254430569941e-01 1.158697095475802463e-01
1.133114102363650816e-01 1.158697095475802463e-01
1.140982950296731691e-01 1.158697095475802463e-01
1.148851798229812565e-01 1.158697095475802463e-01
1.156720646162893579e-01 1.158697095475802463e-01
1.164589494095974453e-01 1.158697095475802463e-01
1.172458342029055328e-01 1.158697095475802463e-01
1.180327189962136203e-01 1.158697095475802463e-01
1.188196037895217216e-01 1.158697095475802463e-01
1.196064885828298091e-01 1.158697095475802463e-01
1.203933733761378966e-01 1.158697095475802463e-01
1.211802581694459841e-01 1.158697095475802463e-01
1.219671429627540854e-01 1.158697095475802463e-01
1.227540277560621729e-01 1.158697095475802463e-01
1.235409125493702603e-01 1.158697095475802463e-01
1.243277973426783478e-01 1.158697095475802463e-01
1.251146821359864492e-01 1.158697095475802463e-01
1.259015669292945228e-01 1.158697095475802463e-01
1.266884517226026241e-01 1.158697095475802463e-01
1.274753365159107255e-01 1.158697095475802463e-01
1.282622213092187990e-01 1.158697095475802463e-01
1.290491061025269004e-01 1.158697095475802463e-01
1.298359908958349740e-01 1.158697095475802463e-01
1.306228756891430753e-01 1.158697095475802463e-01
1.314097604824511767e-01 1.158697095475802463e-01
1.321966452757592503e-01 1.158697095475802463e-01
1.329835300690673516e-01 1.158697095475802463e-01
1.337704148623754530e-01 1.158697095475802463e-01
1.345572996556835266e-01 1.158697095475802463e-01
1.353441844489916279e-01 1.158697095475802463e-01
1.361310692422997015e-01 1.158697095475802463e-01
1.369179540356078029e-01 1.158697095475802463e-01
1.377048388289159042e-01 1.158697095475802463e-01
1.384917236222239778e-01 1.158697095475802463e-01
1.392786084155320792e-01 1.158697095475802463e-01
1.400654932088401805e-01 1.158697095475802463e-01
1.408523780021482541e-01 1.158697095475802463e-01
1.416392627954563554e-01 1.158697095475802463e-01
1.424261475887644290e-01 1.158697095475802463e-01
1.432130323820725304e-01 1.158697095475802463e-01
1.439999171753806317e-01 1.158697095475802463e-01
1.447868019686887053e-01 1.158697095475802463e-01
1.455736867619968067e-01 1.158697095475802463e-01
1.463605715553049080e-01 1.158697095475802463e-01
1.471474563486129816e-01 1.158697095475802463e-01
1.479343411419210830e-01 1.158697095475802463e-01
1.487212259352291566e-01 1.158697095475802463e-01
1.495081107285372579e-01 1.158697095475802463e-01
1.502949955218453593e-01 1.158697095475802463e-01
1.510818803151534329e-01 1.158697095475802463e-01
1.518687651084615342e-01 1.158697095475802463e-01
1.526556499017696078e-01 1.158697095475802463e-01
1.534425346950777092e-01 1.158697095475802463e-01
1.542294194883858105e-01 1.158697095475802463e-01
1.550163042816938841e-01 1.158697095475802463e-01
1.558031890750019854e-01 1.158697095475802463e-01
1.565900738683100868e-01 1.158697095475802463e-01
1.573769586616181604e-01 1.158697095475802463e-01
1.581638434549262617e-01 1.158697095475802463e-01
1.589507282482343353e-01 1.158697095475802463e-01
1.597376130415424367e-01 1.158697095475802463e-01
1.605244978348505380e-01 1.158697095475802463e-01
1.613113826281586116e-01 1.158697095475802463e-01
1.620982674214667130e-01 1.158697095475802463e-01
1.628851522147748143e-01 1.158697095475802463e-01
1.636720370080828879e-01 1.158697095475802463e-01
1.644589218013909893e-01 1.158697095475802463e-01
1.652458065946990629e-01 1.158697095475802463e-01
1.660326913880071642e-01 1.158697095475802463e-01
1.668195761813152656e-01 1.158697095475802463e-01
1.676064609746233391e-01 1.158697095475802463e-01
1.683933457679314405e-01 1.158697095475802463e-01
1.691802305612395418e-01 1.158697095475802463e-01
1.699671153545476154e-01 1.158697095475802463e-01
1.707540001478557168e-01 1.158697095475802463e-01
1.715408849411637904e-01 1.158697095475802463e-01
1.723277697344718917e-01 1.158697095475802463e-01
1.731146545277799931e-01 1.158697095475802463e-01
1.739015393210880667e-01 1.158697095475802463e-01
1.746884241143961680e-01 1.158697095475802463e-01
1.754753089077042694e-01 1.158697095475802463e-01
1.762621937010123430e-01 1.158697095475802463e-01
1.770490784943204443e-01 1.158697095475802463e-01
1.778359632876285179e-01 1.158697095475802463e-01
1.786228480809366193e-01 1.158697095475802463e-01
1.794097328742447206e-01 1.158697095475802463e-01
1.801966176675527942e-01 1.158697095475802463e-01
1.809835024608608955e-01 1.158697095475802463e-01
1.817703872541689691e-01 1.158697095475802463e-01
1.825572720474770705e-01 1.158697095475802463e-01
1.833441568407851718e-01 1.158697095475802463e-01
1.841310416340932454e-01 1.158697095475802463e-01
1.849179264274013468e-01 1.158697095475802463e-01
1.857048112207094481e-01 1.158697095475802463e-01
1.864916960140175217e-01 1.158697095475802463e-01
1.872785808073256231e-01 1.158697095475802463e-01
1.880654656006336967e-01 1.158697095475802463e-01
1.888523503939417980e-01 1.158697095475802463e-01
1.896392351872498994e-01 1.158697095475802463e-01
1.904261199805579730e-01 1.158697095475802463e-01
1.912130047738660743e-01 1.158697095475802463e-01
1.919998895671741757e-01 1.158697095475802463e-01
1.927867743604822492e-01 1.158697095475802463e-01
1.935736591537903506e-01 1.158697095475802463e-01
1.943605439470984242e-01 1.158697095475802463e-01
1.951474287404065255e-01 1.158697095475802463e-01
1.959343135337146269e-01 1.158697095475802463e-01
1.967211983270227005e-01 1.158697095475802463e-01
1.975080831203308018e-01 1.158697095475802463e-01
1.982949679136389032e-01 1.158697095475802463e-01
1.990818527069469768e-01 1.158697095475802463e-01
1.998687375002550781e-01 1.158697095475802463e-01
2.006556222935631517e-01 1.158697095475802463e-01
2.014425070868712531e-01 1.158697095475802463e-01
2.022293918801793544e-01 1.158697095475802463e-01
2.030162766734874280e-01 1.158697095475802463e-01
2.038031614667955294e-01 1.158697095475802463e-01
2.045900462601036029e-01 1.158697095475802463e-01
2.053769310534117043e-01 1.158697095475802463e-01
2.061638158467198056e-01 1.158697095475802463e-01
2.069507006400278792e-01 1.158697095475802463e-01
2.077375854333359806e-01 1.158697095475802463e-01
2.085244702266440819e-01 1.158697095475802463e-01
2.093113550199521555e-01 1.158697095475802463e-01
2.100982398132602569e-01 1.158697095475802463e-01
2.108851246065683305e-01 1.158697095475802463e-01
2.116720093998764318e-01 1.158697095475802463e-01
2.124588941931845332e-01 1.158697095475802463e-01
2.132457789864926068e-01 1.158697095475802463e-01
2.140326637798007081e-01 1.158697095475802463e-01
2.148195485731088095e-01 1.158697095475802463e-01
2.156064333664168831e-01 1.158697095475802463e-01
2.163933181597249844e-01 1.158697095475802463e-01
2.171802029530330580e-01 1.158697095475802463e-01
2.179670877463411593e-01 1.158697095475802463e-01
2.187539725396492607e-01 1.158697095475802463e-01
2.195408573329573343e-01 1.158697095475802463e-01
2.203277421262654356e-01 1.158697095475802463e-01
2.211146269195735370e-01 1.158697095475802463e-01
2.219015117128816106e-01 1.158697095475802463e-01
2.226883965061897119e-01 1.158697095475802463e-01
2.234752812994977855e-01 1.158697095475802463e-01
2.242621660928058869e-01 1.158697095475802463e-01
2.250490508861139882e-01 1.158697095475802463e-01
2.258359356794220618e-01 1.158697095475802463e-01
2.266228204727301632e-01 1.158697095475802463e-01
2.274097052660382368e-01 1.158697095475802463e-01
2.281965900593463381e-01 1.158697095475802463e-01
2.289834748526544395e-01 1.158697095475802463e-01
2.297703596459625131e-01 1.158697095475802463e-01
2.305572444392706144e-01 1.158697095475802463e-01
2.313441292325787157e-01 1.158697095475802463e-01
2.321310140258867893e-01 1.158697095475802463e-01
2.329178988191948907e-01 1.158697095475802463e-01
2.337047836125029643e-01 1.158697095475802463e-01
2.344916684058110656e-01 1.158697095475802463e-01
2.352785531991191670e-01 1.158697095475802463e-01
2.360654379924272406e-01 1.158697095475802463e-01
2.368523227857353419e-01 1.158697095475802463e-01
2.376392075790434433e-01 1.158697095475802463e-01
2.384260923723515169e-01 1.158697095475802463e-01
2.392129771656596182e-01 1.158697095475802463e-01
2.399998619589676918e-01 1.158697095475802463e-01
2.407867467522757932e-01 1.158697095475802463e-01
2.415736315455838945e-01 1.158697095475802463e-01
2.423605163388919681e-01 1.158697095475802463e-01
2.431474011322000695e-01 1.158697095475802463e-01
2.439342859255081708e-01 1.158697095475802463e-01
2.447211707188162444e-01 1.158697095475802463e-01
2.455080555121243457e-01 1.158697095475802463e-01
2.462949403054324193e-01 1.158697095475802463e-01
2.470818250987405207e-01 1.158697095475802463e-01
2.478687098920486220e-01 1.158697095475802463e-01
2.486555946853566956e-01 1.158697095475802463e-01
2.494424794786647970e-01 1.158697095475802463e-01
2.502293642719728983e-01 1.158697095475802463e-01
2.510162490652809719e-01 1.158697095475802463e-01
2.518031338585890455e-01 1.158697095475802463e-01
2.525900186518971746e-01 1.158697095475804684e-01
2.533769034452052482e-01 1.158697095475806904e-01
2.541637882385133218e-01 1.158697095475813565e-01
2.549506730318214509e-01 1.158697095475822447e-01
2.557375578251295245e-01 1.158697095475862415e-01
2.565244426184375981e-01 1.158697095475909045e-01
2.573113274117457272e-01 1.158697095476100003e-01
2.580982122050538008e-01 1.158697095476342032e-01
2.588850969983618744e-01 1.158697095477185801e-01
2.596719817916699480e-01 1.158697095478276040e-01
2.604588665849780771e-01 1.158697095481657779e-01
2.612457513782861507e-01 1.158697095486125317e-01
2.620326361715942243e-01 1.158697095498499863e-01
2.628195209649023534e-01 1.158697095515195397e-01
2.636064057582104270e-01 1.158697095556526779e-01
2.643932905515185006e-01 1.158697095613627770e-01
2.651801753448266297e-01 1.158697095740204297e-01
2.659670601381347033e-01 1.158697095919569708e-01
2.667539449314427769e-01 1.158697096277316874e-01
2.675408297247509060e-01 1.158697096797383086e-01
2.683277145180589796e-01 1.158697097739369575e-01
2.691145993113670531e-01 1.158697099141394737e-01
2.699014841046751823e-01 1.158697101481691583e-01
2.706883688979832558e-01 1.158697105029917740e-01
2.714752536912913294e-01 1.158697110598319036e-01
2.722621384845994030e-01 1.158697119127543029e-01
2.730490232779075321e-01 1.158697131998496221e-01
2.738359080712156057e-01 1.158697151715408769e-01
2.746227928645236793e-01 1.158697180900001289e-01
2.754096776578318084e-01 1.158697225205391756e-01
2.761965624511398820e-01 1.158697290329000484e-01
2.769834472444479556e-01 1.158697387758909070e-01
2.777703320377560847e-01 1.158697530473098425e-01
2.785572168310641583e-01 1.158697740603489290e-01
2.793441016243722319e-01 1.158698046633490630e-01
2.801309864176803610e-01 1.158698490692526839e-01
2.809178712109884346e-01 1.158699131327229903e-01
2.817047560042965082e-01 1.158700049128293941e-01
2.824916407976045818e-01 1.158701357849496461e-01
2.832785255909127109e-01 1.158703210965268404e-01
2.840654103842207845e-01 1.158705821432888250e-01
2.848522951775288581e-01 1.158709475254964261e-01
2.856391799708369872e-01 1.158714561529428089e-01
2.864260647641450608e-01 1.158721596989078506e-01
2.872129495574531344e-01 1.158731276117774822e-01
2.879998343507612635e-01 1.158744504541753262e-01
2.887867191440693371e-01 1.158762486889972632e-01
2.895736039373774107e-01 1.158786768482140683e-01
2.903604887306855398e-01 1.158819373246824380e-01
2.911473735239936134e-01 1.158862870883852203e-01
2.919342583173016870e-01 1.158920554717637330e-01
2.927211431106098161e-01 1.158996577774806802e-01
2.935080279039178897e-01 1.159096140803899111e-01
2.942949126972259632e-01 1.159225745149583542e-01
2.950817974905340368e-01 1.159393367100312044e-01
2.958686822838421659e-01 1.159608836498515760e-01
2.966555670771502395e-01 1.159884026279407454e-01
2.974424518704583131e-01 1.160233282497382667e-01
2.982293366637664422e-01 1.160673704310586363e-01
2.990162214570745158e-01 1.161225512307866303e-01
2.998031062503825894e-01 1.161912447685458094e-01
3.005899910436907185e-01 1.162762056438320091e-01
3.013768758369987921e-01 1.163806040859991509e-01
3.021637606303068657e-01 1.165080549342967231e-01
3.029506454236149948e-01 1.166626363346701112e-01
3.037375302169230684e-01 1.168489043232647795e-01
3.045244150102311420e-01 1.170718913306822984e-01
3.053112998035392156e-01 1.173371151564430726e-01
3.060981845968473447e-01 1.176505483062362245e-01
3.068850693901554183e-01 1.180185850855515195e-01
3.076719541834634919e-01 1.184480371124474463e-01
3.084588389767716210e-01 1.189460420771686344e-01
3.092457237700796946e-01 1.195200727166103594e-01
3.100326085633877682e-01 1.201778949334868507e-01
3.108194933566958973e-01 1.209275378814511637e-01
3.116063781500039709e-01 1.217772879821208409e-01
3.123932629433120445e-01 1.227357726867386312e-01
3.131801477366201736e-01 1.238120861186677857e-01
3.139670325299282472e-01 1.250159087329094643e-01
3.147539173232363208e-01 1.263578184308491448e-01
3.155408021165444499e-01 1.278496615047624019e-01
3.163276869098525235e-01 1.295050073439831806e-01
3.171145717031605971e-01 1.313394356177468580e-01
3.179014564964686707e-01 1.333718764617906061e-01
3.186883412897767998e-01 1.356248258654866312e-01
3.194752260830848734e-01 1.381250396970450378e-01
3.202621108763929469e-01 1.409050653453447488e-01
3.210489956697010761e-01 1.440037682218111570e-01
3.218358804630091496e-01 1.474662360328025112e-01
3.226227652563172232e-01 1.513463634251972501e-01
3.234096500496253523e-01 1.557056075274070306e-01
3.241965348429334259e-01 1.606122221284622675e-01
3.249834196362414995e-01 1.661450867825866595e-01
3.257703044295496286e-01 1.723867186933487616e-01
3.265571892228577022e-01 1.794265274525499443e-01
3.273440740161657758e-01 1.873567944804224172e-01
3.281309588094738494e-01 1.962696097419696084e-01
3.289178436027819785e-01 2.062559144708226988e-01
3.297047283960900521e-01 2.173966942287208770e-01
3.304916131893981257e-01 2.297602985323090596e-01
3.312784979827062548e-01 2.434003348456221794e-01
3.320653827760143284e-01 2.583445641768218337e-01
3.328522675693224020e-01 2.745933694363649202e-01
3.336391523626305311e-01 2.921142032353731821e-01
3.344260371559386047e-01 3.108362271392286491e-01
3.352129219492466783e-01 3.306415047270534480e-01
3.359998067425548074e-01 3.513695965171996782e-01
3.367866915358628810e-01 3.728156454149607058e-01
3.375735763291709546e-01 3.947261646975417371e-01
3.383604611224790837e-01 4.168063133127484221e-01
3.391473459157871573e-01 4.387221933417329023e-01
3.399342307090952309e-01 4.601054449244812439e-01
3.407211155024033045e-01 4.805735405140563188e-01
3.415080002957114336e-01 4.997259557720232781e-01
3.422948850890195072e-01 5.171644638226917667e-01
3.430817698823275808e-01 5.325088345818687063e-01
3.438686546756357099e-01 5.454052587869215873e-01
3.446555394689437835e-01 5.555481738928491620e-01
3.454424242622518570e-01 5.626867735500580281e-01
3.462293090555599862e-01 5.666422385749452229e-01
3.470161938488680597e-01 5.673136720619866846e-01
3.478030786421761333e-01 5.646903525183757377e-01
3.485899634354842624e-01 5.588538398715374722e-01
3.493768482287923360e-01 5.499756780063844719e-01
3.501637330221004096e-01 5.383217982355772424e-01
3.509506178154085387e-01 5.242375857916863335e-01
3.517375026087166123e-01 5.081406045285001838e-01
3.525243874020246859e-01 4.905010684876993654e-01
3.533112721953327595e-01 4.718295887642200981e-01
3.540981569886408886e-01 4.526668349239035827e-01
3.548850417819489622e-01 4.335393088456671595e-01
3.556719265752570358e-01 4.149577173520613282e-01
3.564588113685651649e-01 3.974023258842731554e-01
3.572456961618732385e-01 3.812757647882532019e-01
3.580325809551813121e-01 3.669090601544191532e-01
3.588194657484894412e-01 3.545426797500150773e-01
3.596063505417975148e-01 3.443076746790838527e-01
3.603932353351055884e-01 3.362373581514193077e-01
3.611801201284137175e-01 3.302450966760357431e-01
3.619670049217217911e-01 3.261420196698230356e-01
3.627538897150298647e-01 3.236325202596725958e-01
3.635407745083379383e-01 3.223468983989699055e-01
3.643276593016460674e-01 3.218382018563212821e-01
3.651145440949541410e-01 3.215929477083598886e-01
3.659014288882622146e-01 3.210794647849937178e-01
3.666883136815703437e-01 3.197503825873766470e-01
3.674751984748784173e-01 3.170596708032642486e-01
3.682620832681864909e-01 3.125009303527519489e-01
3.690489680614946200e-01 3.056140943212799499e-01
3.698358528548026936e-01 2.960118487811935761e-01
3.706227376481107672e-01 2.833901628293216124e-01
3.714096224414188963e-01 2.675428391843566178e-01
3.721965072347269698e-01 2.483737673214929664e-01
3.729833920280350434e-01 2.258764377629547404e-01
3.737702768213431725e-01 2.001785511462832456e-01
3.745571616146512461e-01 1.714931971410182943e-01
3.753440464079593197e-01 1.401546565764655305e-01
3.761309312012673933e-01 1.065557955819120828e-01
3.769178159945755224e-01 7.118482499053602197e-02
3.777047007878835960e-01 3.457188433060043309e-02
3.784915855811916696e-01 -2.720913846439354522e-03
3.792784703744997987e-01 -4.008550773424079949e-02
3.800653551678078723e-01 -7.695078638559949002e-02
3.808522399611159459e-01 -1.127345344500469970e-01
3.816391247544240750e-01 -1.469108244143516595e-01
3.824260095477321486e-01 -1.790006352963126046e-01
3.832128943410402222e-01 -2.085678320849574385e-01
3.839997791343483513e-01 -2.352794741375815457e-01
3.847866639276564249e-01 -2.588656095817215563e-01
3.855735487209644985e-01 -2.791369849238101164e-01
3.863604335142725721e-01 -2.960068709452474689e-01
3.871473183075807012e-01 -3.094579409478364074e-01
3.879342031008887748e-01 -3.195554333007556425e-01
3.887210878941968484e-01 -3.264206707892401971e-01
3.895079726875049775e-01 -3.302451804376982381e-01
3.902948574808130511e-01 -3.312695018090844323e-01
3.910817422741211247e-01 -3.297600927179381580e-01
3.918686270674292538e-01 -3.260147976703536843e-01
3.926555118607373274e-01 -3.203424578821232327e-01
3.934423966540454010e-01 -3.130374836311762277e-01
3.942292814473535301e-01 -3.043976835257514724e-01
3.950161662406616037e-01 -2.946999018265451520e-01
3.958030510339696773e-01 -2.841941790622359854e-01
3.965899358272778064e-01 -2.730805859468128372e-01
3.973768206205858800e-01 -2.615434938655112340e-01
3.981637054138939535e-01 -2.497362584565175903e-01
3.989505902072020271e-01 -2.377542244237234037e-01
3.997374750005101562e-01 -2.256672729256029575e-01
4.005243597938182298e-01 -2.135152266497254425e-01
4.013112445871263034e-01 -2.013126361934718389e-01
4.020981293804344325e-01 -1.890506946163220681e-01
4.028850141737425061e-01 -1.767232753509577758e-01
4.036718989670505797e-01 -1.642943848143839647e-01
4.044587837603587088e-01 -1.517310927072644811e-01
4.052456685536667824e-01 -1.390031491034654509e-01
4.060325533469748560e-01 -1.261078736297848168e-01
4.068194381402829851e-01 -1.130487124803393195e-01
4.076063229335910587e-01 -9.985055483485960615e-02
4.083932077268991323e-01 -8.655820121686075286e-02
4.091800925202072059e-01 -7.324057550867379973e-02
4.099669773135153350e-01 -6.001025338477283810e-02
4.107538621068234086e-01 -4.698593708695031346e-02
4.115407469001314822e-01 -3.432921482822659520e-02
4.123276316934396113e-01 -2.222158616540692577e-02
4.131145164867476849e-01 -1.085450632718842900e-02
4.139014012800557585e-01 -4.523608416046043246e-04
4.146882860733638876e-01 8.753572375078233492e-03
4.154751708666719612e-01 1.653814197391212382e-02
4.162620556599800348e-01 2.265628526216412197e-02
4.170489404532881639e-01 2.688055342814221760e-02
4.178358252465962375e-01 2.900494064576797371e-02
4.186227100399043111e-01 2.884794735823614786e-02
4.194095948332124402e-01 2.623113729240089675e-02
4.201964796265205138e-01 2.103044746006643706e-02
4.209833644198285874e-01 1.316546666517970365e-02
4.217702492131366609e-01 2.587948190109212732e-03
4.225571340064447901e-01 -1.068832318867918296e-02
4.233440187997528636e-01 -2.661050582806467890e-02
4.241309035930609372e-01 -4.506066330716984591e-02
4.249177883863690663e-01 -6.587567577114461503e-02
4.257046731796771399e-01 -8.885106903574002679e-02
4.264915579729852135e-01 -1.137149766762061143e-01
4.272784427662933426e-01 -1.401725576403487494e-01
4.280653275596014162e-01 -1.678952747557235226e-01
4.288522123529094898e-01 -1.965086415949981458e-01
4.296390971462176189e-01 -2.256328109844374374e-01
4.304259819395256925e-01 -2.548802775411577182e-01
4.312128667328337661e-01 -2.838589409567869870e-01
4.319997515261418397e-01 -3.121828274902713751e-01
4.327866363194499688e-01 -3.394736216097048453e-01
4.335735211127580424e-01 -3.654020203217280827e-01
4.343604059060661160e-01 -3.896616952604252671e-01
4.351472906993742451e-01 -4.119654635827505462e-01
4.359341754926823187e-01 -4.320874081188408322e-01
4.367210602859903923e-01 -4.498391369236581783e-01
4.375079450792985214e-01 -4.650988844717508508e-01
4.382948298726065950e-01 -4.777525434468153920e-01
4.390817146659146686e-01 -4.877602911612827219e-01
4.398685994592227977e-01 -4.951217447046953879e-01
4.406554842525308713e-01 -4.998683027345598440e-01
4.414423690458389449e-01 -5.020807593573862748e-01
4.422292538391470740e-01 -5.018559909188955448e-01
4.430161386324551476e-01 -4.993180604072836593e-01
4.438030234257632212e-01 -4.946128567068178716e-01
4.445899082190712948e-01 -4.879146040756127123e-01
4.453767930123794239e-01 -4.793871881894332665e-01
4.461636778056874975e-01 -4.692117256946271020e-01
4.469505625989955711e-01 -4.575674186852549674e-01
4.477374473923037002e-01 -4.446304059717183232e-01
4.485243321856117737e-01 -4.305844845735667947e-01
4.493112169789198473e-01 -4.155964119949955293e-01
4.500981017722279764e-01 -3.998317970088279827e-01
4.508849865655360500e-01 -3.834363370441026264e-01
4.516718713588441236e-01 -3.665572611716878537e-01
4.524587561521522527e-01 -3.493375864474204118e-01
4.532456409454603263e-01 -3.319128631732182200e-01
4.540325257387683999e-01 -3.143862857173489456e-01
4.548194105320764735e-01 -2.968478380373005265e-01
4.556062953253846026e-01 -2.794099043523181614e-01
4.563931801186926762e-01 -2.621690738252797637e-01
4.571800649120007498e-01 -2.451820172038796652e-01
4.579669497053088789e-01 -2.285180412809063588e-01
4.587538344986169525e-01 -2.122376459086280365e-01
4.595407192919250261e-01 -1.963787392223270700e-01
4.603276040852331552e-01 -1.809845901036888360e-01
4.611144888785412288e-01 -1.660872673035201919e-01
4.619013736718493024e-01 -1.517009385087446649e-01
4.626882584651574315e-01 -1.378329747456672472e-01
4.634751432584655051e-01 -1.244785896335705022e-01
4.642620280517735787e-01 -1.116435268293152205e-01
4.650489128450817078e-01 -9.930347151885687840e-02
4.658357976383897814e-01 -8.743774653749625259e-02
4.666226824316978550e-01 -7.600882666040864599e-02
4.674095672250059286e-01 -6.497325155067967817e-02
4.681964520183140577e-01 -5.428373176682110834e-02
4.689833368116221313e-01 -4.387689562813423816e-02