0.000000000000000000e+00 -1.302104411621003432e-01
7.871053018672357097e-04 -1.363013644637935950e-01
1.574210603734471419e-03 -1.363013644637935950e-01
2.361315905601707021e-03 -1.363013644637935950e-01
3.148421207468942839e-03 -1.363013644637935950e-01
3.935526509336178223e-03 -1.363013644637935950e-01
4.722631811203414041e-03 -1.363013644637935950e-01
5.509737113070649860e-03 -1.363013644637935950e-01
6.296842414937885678e-03 -1.363013644637935950e-01
7.083947716805121496e-03 -1.363013644637935950e-01
7.871053018672356447e-03 -1.363013644637935950e-01
8.658158320539592265e-03 -1.363013644637935950e-01
9.445263622406828083e-03 -1.363013644637935950e-01
1.023236892427406390e-02 -1.363013644637935950e-01
1.101947422614129972e-02 -1.363013644637935950e-01
1.180657952800853554e-02 -1.363013644637935950e-01
1.259368482987577136e-02 -1.363013644637935950e-01
1.338079013174300717e-02 -1.363013644637935950e-01
1.416789543361024299e-02 -1.363013644637935950e-01
1.495500073547747881e-02 -1.363013644637935950e-01
1.574210603734471289e-02 -1.363013644637935950e-01
1.652921133921194871e-02 -1.363013644637935950e-01
1.731631664107918453e-02 -1.363013644637935950e-01
1.810342194294642035e-02 -1.363013644637935950e-01
1.889052724481365617e-02 -1.363013644637935950e-01
1.967763254668089198e-02 -1.363013644637935950e-01
2.046473784854812780e-02 -1.363013644637935950e-01
2.125184315041536362e-02 -1.363013644637935950e-01
2.203894845228259944e-02 -1.363013644637935950e-01
2.282605375414983526e-02 -1.363013644637935950e-01
2.361315905601707107e-02 -1.363013644637935950e-01
2.440026435788430689e-02 -1.363013644637935950e-01
2.518736965975154271e-02 -1.363013644637935950e-01
2.597447496161877853e-02 -1.363013644637935950e-01
2.676158026348601435e-02 -1.363013644637935950e-01
2.754868556535325017e-02 -1.363013644637935950e-01
2.833579086722048598e-02 -1.363013644637935950e-01
2.912289616908772180e-02 -1.363013644637935950e-01
2.991000147095495762e-02 -1.363013644637935950e-01
3.069710677282219344e-02 -1.363013644637935950e-01
3.148421207468942579e-02 -1.363013644637935950e-01
3.227131737655666160e-02 -1.363013644637935950e-01
3.305842267842389742e-02 -1.363013644637935950e-01
3.384552798029113324e-02 -1.363013644637935950e-01
3.463263328215836906e-02 -1.363013644637935950e-01
3.541973858402560488e-02 -1.363013644637935950e-01
3.620684388589284070e-02 -1.363013644637935950e-01
3.699394918776007651e-02 -1.363013644637935950e-01
3.778105448962731233e-02 -1.363013644637935950e-01
3.856815979149454815e-02 -1.363013644637935950e-01
3.935526509336178397e-02 -1.363013644637935950e-01
4.014237039522901979e-02 -1.363013644637935950e-01
4.092947569709625560e-02 -1.363013644637935950e-01
4.171658099896349142e-02 -1.363013644637935950e-01
4.250368630083072724e-02 -1.363013644637935950e-01
4.329079160269796306e-02 -1.363013644637935950e-01
4.407789690456519888e-02 -1.363013644637935950e-01
4.486500220643243469e-02 -1.363013644637935950e-01
4.565210750829967051e-02 -1.363013644637935950e-01
4.643921281016690633e-02 -1.363013644637935950e-01
4.722631811203414215e-02 -1.363013644637935950e-01
4.801342341390137797e-02 -1.363013644637935950e-01
4.880052871576861379e-02 -1.363013644637935950e-01
4.958763401763584960e-02 -1.363013644637935950e-01
5.037473931950308542e-02 -1.363013644637935950e-01
5.116184462137032124e-02 -1.363013644637935950e-01
5.194894992323755706e-02 -1.363013644637935950e-01
5.273605522510479288e-02 -1.363013644637935950e-01
5.352316052697202869e-02 -1.363013644637935950e-01
5.431026582883926451e-02 -1.363013644637935950e-01
5.509737113070650033e-02 -1.363013644637935950e-01
5.588447643257373615e-02 -1.363013644637935950e-01
5.667158173444097197e-02 -1.363013644637935950e-01
5.745868703630820779e-02 -1.363013644637935950e-01
5.824579233817544360e-02 -1.363013644637935950e-01
5.903289764004267942e-02 -1.363013644637935950e-01
5.982000294190991524e-02 -1.363013644637935950e-01
6.060710824377715106e-02 -1.363013644637935950e-01
6.139421354564438688e-02 -1.363013644637935950e-01
6.218131884751162269e-02 -1.363013644637935950e-01
6.296842414937885157e-02 -1.363013644637935950e-01
6.375552945124608739e-02 -1.363013644637935950e-01
6.454263475311332321e-02 -1.363013644637935950e-01
6.532974005498055903e-02 -1.363013644637935950e-01
6.611684535684779485e-02 -1.363013644637935950e-01
6.690395065871503066e-02 -1.363013644637935950e-01
6.769105596058226648e-02 -1.363013644637935950e-01
6.847816126244950230e-02 -1.363013644637935950e-01
6.926526656431673812e-02 -1.363013644637935950e-01
7.005237186618397394e-02 -1.363013644637935950e-01
7.083947716805120975e-02 -1.363013644637935950e-01
7.162658246991844557e-02 -1.363013644637935950e-01
7.241368777178568139e-02 -1.363013644637935950e-01
7.320079307365291721e-02 -1.363013644637935950e-01
7.398789837552015303e-02 -1.363013644637935950e-01
7.477500367738738885e-02 -1.363013644637935950e-01
7.556210897925462466e-02 -1.363013644637935950e-01
7.634921428112186048e-02 -1.363013644637935950e-01
7.713631958298909630e-02 -1.363013644637935950e-01
7.792342488485633212e-02 -1.363013644637935950e-01
7.871053018672356794e-02 -1.363013644637935950e-01
7.949763548859080375e-02 -1.363013644637935950e-01
8.028474079045803957e-02 -1.363013644637935950e-01
8.107184609232527539e-02 -1.363013644637935950e-01
8.185895139419251121e-02 -1.363013644637935950e-01
8.264605669605974703e-02 -1.363013644637935950e-01
8.343316199792698284e-02 -1.363013644637935950e-01
8.422026729979421866e-02 -1.363013644637935950e-01
8.500737260166145448e-02 -1.363013644637935950e-01
8.579447790352869030e-02 -1.363013644637935950e-01
8.658158320539592612e-02 -1.363013644637935950e-01
8.736868850726316194e-02 -1.363013644637935950e-01
8.815579380913039775e-02 -1.363013644637935950e-01
8.894289911099763357e-02 -1.363013644637935950e-01
8.973000441286486939e-02 -1.363013644637935950e-01
9.051710971473210521e-02 -1.363013644637935950e-01
9.130421501659934103e-02 -1.363013644637935950e-01
9.209132031846657684e-02 -1.363013644637935950e-01
9.287842562033381266e-02 -1.363013644637935950e-01
9.366553092220104848e-02 -1.363013644637935950e-01
9.445263622406828430e-02 -1.363013644637935950e-01
9.523974152593552012e-02 -1.363013644637935950e-01
9.602684682780275593e-02 -1.363013644637935950e-01
9.681395212966999175e-02 -1.363013644637935950e-01
9.760105743153722757e-02 -1.363013644637935950e-01
9.838816273340446339e-02 -1.363013644637935950e-01
9.917526803527169921e-02 -1.363013644637935950e-01
9.996237333713893503e-02 -1.363013644637935950e-01
1.007494786390061708e-01 -1.363013644637935950e-01
1.015365839408734067e-01 -1.363013644637935950e-01
1.023236892427406425e-01 -1.363013644637935950e-01
1.031107945446078783e-01 -1.363013644637935950e-01
1.038978998464751141e-01 -1.363013644637935950e-01
1.046850051483423499e-01 -1.363013644637935950e-01
1.054721104502095858e-01 -1.363013644637935950e-01
1.062592157520768216e-01 -1.363013644637935950e-01
1.070463210539440574e-01 -1.363013644637935950e-01
1.078334263558112932e-01 -1.363013644637935950e-01
1.086205316576785290e-01 -1.363013644637935950e-01
1.094076369595457648e-01 -1.363013644637935950e-01
1.101947422614130007e-01 -1.363013644637935950e-01
1.109818475632802365e-01 -1.363013644637935950e-01
1.117689528651474723e-01 -1.363013644637935950e-01
1.125560581670147081e-01 -1.363013644637935950e-01
1.133431634688819439e-01 -1.363013644637935950e-01
1.141302687707491798e-01 -1.363013644637935950e-01
1.149173740726164156e-01 -1.363013644637935950e-01
1.157044793744836514e-01 -1.363013644637935950e-01
1.164915846763508872e-01 -1.363013644637935950e-01
1.172786899782181230e-01 -1.363013644637935950e-01
1.180657952800853588e-01 -1.363013644637935950e-01
1.188529005819525947e-01 -1.363013644637935950e-01
1.196400058838198305e-01 -1.363013644637935950e-01
1.204271111856870663e-01 -1.363013644637935950e-01
1.212142164875543021e-01 -1.363013644637935950e-01
1.220013217894215379e-01 -1.363013644637935950e-01
1.227884270912887738e-01 -1.363013644637935950e-01
1.235755323931560096e-01 -1.363013644637935950e-01
1.243626376950232454e-01 -1.363013644637935950e-01
1.251497429968904673e-01 -1.363013644637935950e-01
1.259368482987577031e-01 -1.363013644637935950e-01
1.267239536006249390e-01 -1.363013644637935950e-01
1.275110589024921748e-01 -1.363013644637935950e-01
1.282981642043594106e-01 -1.363013644637935950e-01
1.290852695062266464e-01 -1.363013644637935950e-01
1.298723748080938822e-01 -1.363013644637935950e-01
1.306594801099611181e-01 -1.363013644637935950e-01
1.314465854118283539e-01 -1.363013644637935950e-01
1.322336907136955897e-01 -1.363013644637935950e-01
1.330207960155628255e-01 -1.363013644637935950e-01
1.338079013174300613e-01 -1.363013644637935950e-01
1.345950066192972971e-01 -1.363013644637935950e-01
1.353821119211645330e-01 -1.363013644637935950e-01
1.361692172230317688e-01 -1.363013644637935950e-01
1.369563225248990046e-01 -1.363013644637935950e-01
1.377434278267662404e-01 -1.363013644637935950e-01
1.385305331286334762e-01 -1.363013644637935950e-01
1.393176384305007121e-01 -1.363013644637935950e-01
1.401047437323679479e-01 -1.363013644637935950e-01
1.408918490342351837e-01 -1.363013644637935950e-01
1.416789543361024195e-01 -1.363013644637935950e-01
1.424660596379696553e-01 -1.363013644637935950e-01
1.432531649398368911e-01 -1.363013644637935950e-01
1.440402702417041270e-01 -1.363013644637935950e-01
1.448273755435713628e-01 -1.363013644637935950e-01
1.456144808454385986e-01 -1.363013644637935950e-01
1.464015861473058344e-01 -1.363013644637935950e-01
1.471886914491730702e-01 -1.363013644637935950e-01
1.479757967510403061e-01 -1.363013644637935950e-01
1.487629020529075419e-01 -1.363013644637935950e-01
1.495500073547747777e-01 -1.363013644637935950e-01
1.503371126566420135e-01 -1.363013644637935950e-01
1.511242179585092493e-01 -1.363013644637935950e-01
1.519113232603764851e-01 -1.363013644637935950e-01
1.526984285622437210e-01 -1.363013644637935950e-01
1.534855338641109568e-01 -1.363013644637935950e-01
1.542726391659781926e-01 -1.363013644637935950e-01
1.550597444678454284e-01 -1.363013644637935950e-01
1.558468497697126642e-01 -1.363013644637935950e-01
1.566339550715799001e-01 -1.363013644637935950e-01
1.574210603734471359e-01 -1.363013644637935950e-01
1.582081656753143717e-01 -1.363013644637935950e-01
1.589952709771816075e-01 -1.363013644637935950e-01
1.597823762790488433e-01 -1.363013644637935950e-01
1.605694815809160791e-01 -1.363013644637935950e-01
1.613565868827833150e-01 -1.363013644637935950e-01
1.621436921846505508e-01 -1.363013644637935950e-01
1.629307974865177866e-01 -1.363013644637935950e-01
1.637179027883850224e-01 -1.363013644637935950e-01
1.645050080902522582e-01 -1.363013644637935950e-01
1.652921133921194941e-01 -1.363013644637935950e-01
1.660792186939867299e-01 -1.363013644637935950e-01
1.668663239958539657e-01 -1.363013644637935950e-01
1.676534292977212015e-01 -1.363013644637935950e-01
1.684405345995884373e-01 -1.363013644637935950e-01
1.692276399014556731e-01 -1.363013644637935950e-01
1.700147452033229090e-01 -1.363013644637935950e-01
1.708018505051901448e-01 -1.363013644637935950e-01
1.715889558070573806e-01 -1.363013644637935950e-01
1.723760611089246164e-01 -1.363013644637935950e-01
1.731631664107918522e-01 -1.363013644637935950e-01
1.739502717126590881e-01 -1.363013644637935950e-01
1.747373770145263239e-01 -1.363013644637935950e-01
1.755244823163935597e-01 -1.363013644637935950e-01
1.763115876182607955e-01 -1.363013644637935950e-01
1.770986929201280313e-01 -1.363013644637935950e-01
1.778857982219952671e-01 -1.363013644637935950e-01
1.786729035238625030e-01 -1.363013644637935950e-01
1.794600088257297388e-01 -1.363013644637935950e-01
1.802471141275969746e-01 -1.363013644637935950e-01
1.810342194294642104e-01 -1.363013644637935950e-01
1.818213247313314462e-01 -1.363013644637935950e-01
1.826084300331986821e-01 -1.363013644637935950e-01
1.833955353350659179e-01 -1.363013644637935950e-01
1.841826406369331537e-01 -1.363013644637935950e-01
1.849697459388003895e-01 -1.363013644637935950e-01
1.857568512406676253e-01 -1.363013644637935950e-01
1.865439565425348611e-01 -1.363013644637935950e-01
1.873310618444020970e-01 -1.363013644637935950e-01
1.881181671462693328e-01 -1.363013644637935950e-01
1.889052724481365686e-01 -1.363013644637935950e-01
1.896923777500038044e-01 -1.363013644637935950e-01
1.904794830518710402e-01 -1.363013644637935950e-01
1.912665883537382761e-01 -1.363013644637935950e-01
1.920536936556055119e-01 -1.363013644637935950e-01
1.928407989574727477e-01 -1.363013644637935950e-01
1.936279042593399835e-01 -1.363013644637935950e-01
1.944150095612072193e-01 -1.363013644637935950e-01
1.952021148630744551e-01 -1.363013644637935950e-01
1.959892201649416910e-01 -1.363013644637935950e-01
1.967763254668089268e-01 -1.363013644637935950e-01
1.975634307686761626e-01 -1.363013644637935950e-01
1.983505360705433984e-01 -1.363013644637935950e-01
1.991376413724106342e-01 -1.363013644637935950e-01
1.999247466742778701e-01 -1.363013644637935950e-01
2.007118519761451059e-01 -1.363013644637935950e-01
2.014989572780123417e-01 -1.363013644637935950e-01
2.022860625798795775e-01 -1.363013644637935950e-01
2.030731678817468133e-01 -1.363013644637935950e-01
2.038602731836140491e-01 -1.363013644637935950e-01
2.046473784854812850e-01 -1.363013644637935950e-01
2.054344837873485208e-01 -1.363013644637935950e-01
2.062215890892157566e-01 -1.363013644637935950e-01
2.070086943910829924e-01 -1.363013644637935950e-01
2.077957996929502282e-01 -1.363013644637935950e-01
2.085829049948174641e-01 -1.363013644637935950e-01
2.093700102966846999e-01 -1.363013644637935950e-01
2.101571155985519357e-01 -1.363013644637935950e-01
2.109442209004191715e-01 -1.363013644637935950e-01
2.117313262022864073e-01 -1.363013644637935950e-01
2.125184315041536431e-01 -1.363013644637935950e-01
2.133055368060208790e-01 -1.363013644637935950e-01
2.140926421078881148e-01 -1.363013644637935950e-01
2.148797474097553506e-01 -1.363013644637935950e-01
2.156668527116225864e-01 -1.363013644637935950e-01
2.164539580134898222e-01 -1.363013644637935950e-01
2.172410633153570581e-01 -1.363013644637935950e-01
2.180281686172242939e-01 -1.363013644637935950e-01
2.188152739190915297e-01 -1.363013644637935950e-01
2.196023792209587655e-01 -1.363013644637935950e-01
2.203894845228260013e-01 -1.363013644637935950e-01
2.211765898246932371e-01 -1.363013644637935950e-01
2.219636951265604730e-01 -1.363013644637935950e-01
2.227508004284277088e-01 -1.363013644637935950e-01
2.235379057302949446e-01 -1.363013644637935950e-01
2.243250110321621804e-01 -1.363013644637935950e-01
2.251121163340294162e-01 -1.363013644637935950e-01
2.258992216358966520e-01 -1.363013644637935950e-01
2.266863269377638879e-01 -1.363013644637935950e-01
2.274734322396311237e-01 -1.363013644637935950e-01
2.282605375414983595e-01 -1.363013644637935950e-01
2.290476428433655953e-01 -1.363013644637935950e-01
2.298347481452328311e-01 -1.363013644637935950e-01
2.306218534471000670e-01 -1.363013644637935950e-01
2.314089587489673028e-01 -1.363013644637935950e-01
2.321960640508345386e-01 -1.363013644637935950e-01
2.329831693527017744e-01 -1.363013644637935950e-01
2.337702746545690102e-01 -1.363013644637935950e-01
2.345573799564362460e-01 -1.363013644637935950e-01
2.353444852583034819e-01 -1.363013644637935950e-01
2.361315905601707177e-01 -1.363013644637935950e-01
2.369186958620379535e-01 -1.363013644637935950e-01
2.377058011639051893e-01 -1.363013644637935950e-01
2.384929064657724251e-01 -1.363013644637935950e-01
2.392800117676396610e-01 -1.363013644637935950e-01
2.400671170695068968e-01 -1.363013644637935950e-01
2.408542223713741326e-01 -1.363013644637935950e-01
2.416413276732413684e-01 -1.363013644637935950e-01
2.424284329751086042e-01 -1.363013644637935950e-01
2.432155382769758400e-01 -1.363013644637935950e-01
2.440026435788430759e-01 -1.363013644637935950e-01
2.447897488807103117e-01 -1.363013644637935950e-01
2.455768541825775475e-01 -1.363013644637935950e-01
2.463639594844447833e-01 -1.363013644637935950e-01
2.471510647863120191e-01 -1.363013644637935950e-01
2.479381700881792550e-01 -1.363013644637935950e-01
2.487252753900464908e-01 -1.363013644637935950e-01
2.495123806919137266e-01 -1.363013644637935950e-01
2.502994859937809347e-01 -1.363013644637935950e-01
2.510865912956481982e-01 -1.363013644637935950e-01
2.518736965975154063e-01 -1.363013644637935950e-01
2.526608018993826699e-01 -1.363013644637935950e-01
2.534479072012498779e-01 -1.363013644637935950e-01
2.542350125031171415e-01 -1.363013644637935950e-01
2.550221178049843496e-01 -1.363013644637935950e-01
2.558092231068516131e-01 -1.363013644637935950e-01
2.565963284087188212e-01 -1.363013644637935950e-01
2.573834337105860848e-01 -1.363013644637935950e-01
2.581705390124532928e-01 -1.363013644637935950e-01
2.589576443143205564e-01 -1.363013644637935950e-01
2.597447496161877645e-01 -1.363013644637935950e-01
2.605318549180550280e-01 -1.363013644637935950e-01
2.613189602199222361e-01 -1.363013644637935950e-01
2.621060655217894997e-01 -1.363013644637935950e-01
2.628931708236567077e-01 -1.363013644637935950e-01
2.636802761255239713e-01 -1.363013644637935950e-01
2.644673814273911794e-01 -1.363013644637938171e-01
2.652544867292584430e-01 -1.363013644637940391e-01
2.660415920311256510e-01 -1.363013644637944832e-01
2.668286973329929146e-01 -1.363013644637957045e-01
2.676158026348601227e-01 -1.363013644637985911e-01
2.684029079367273862e-01 -1.363013644638050303e-01
2.691900132385945943e-01 -1.363013644638192412e-01
2.699771185404618579e-01 -1.363013644638498834e-01
2.707642238423290659e-01 -1.363013644639142763e-01
2.715513291441963295e-01 -1.363013644640468369e-01
2.723384344460635376e-01 -1.363013644643122912e-01
2.731255397479308011e-01 -1.363013644648330969e-01
2.739126450497980092e-01 -1.363013644658307433e-01
2.746997503516652728e-01 -1.363013644677013581e-01
2.754868556535324808e-01 -1.363013644711317252e-01
2.762739609553997444e-01 -1.363013644772922417e-01
2.770610662572669525e-01 -1.363013644881295727e-01
2.778481715591342160e-01 -1.363013645068245072e-01
2.786352768610014241e-01 -1.363013645384705264e-01
2.794223821628686877e-01 -1.363013645910958749e-01
2.802094874647358957e-01 -1.363013646771631393e-01
2.809965927666031593e-01 -1.363013648157664903e-01
2.817836980684703674e-01 -1.363013650358680939e-01
2.825708033703376310e-01 -1.363013653809767023e-01
2.833579086722048390e-01 -1.363013659160737800e-01
2.841450139740721026e-01 -1.363013667375890803e-01
2.849321192759393107e-01 -1.363013679881046603e-01
2.857192245778065742e-01 -1.363013698774721005e-01
2.865063298796737823e-01 -1.363013727134991804e-01
2.872934351815410459e-01 -1.363013769456778990e-01
2.880805404834082539e-01 -1.363013832275863368e-01
2.888676457852755175e-01 -1.363013925048307540e-01
2.896547510871427256e-01 -1.363014061384779652e-01
2.904418563890099891e-01 -1.363014260770957220e-01
2.912289616908771972e-01 -1.363014550952609261e-01
2.920160669927444608e-01 -1.363014971226336192e-01
2.928031722946116688e-01 -1.363015576957739006e-01
2.935902775964789324e-01 -1.363016445752261996e-01
2.943773828983461405e-01 -1.363017685843254112e-01
2.951644882002134040e-01 -1.363019447423459152e-01
2.959515935020806121e-01 -1.363021937871335965e-01
2.967386988039478757e-01 -1.363025442081512439e-01
2.975258041058150837e-01 -1.363030349460004897e-01
2.983129094076823473e-01 -1.363037189546685291e-01
2.991000147095495554e-01 -1.363046678758238484e-01
2.998871200114168190e-01 -1.363059781343808341e-01
3.006742253132840270e-01 -1.363077788465336670e-01
3.014613306151512906e-01 -1.363102420086272915e-01
3.022484359170184987e-01 -1.363135955548043787e-01
3.030355412188857622e-01 -1.363181399727856347e-01
3.038226465207529703e-01 -1.363242693315358522e-01
3.046097518226202339e-01 -1.363324977066272536e-01
3.053968571244874419e-01 -1.363434921598860594e-01
3.061839624263547055e-01 -1.363581136945909433e-01
3.069710677282219136e-01 -1.363774676653635165e-01
3.077581730300891771e-01 -1.364029655014599163e-01
3.085452783319563852e-01 -1.364363997860073008e-01
3.093323836338236488e-01 -1.364800348517344331e-01
3.101194889356908568e-01 -1.365367153033978376e-01
3.109065942375581204e-01 -1.366099951244723609e-01
3.116936995394253285e-01 -1.367042900869547273e-01
3.124808048412925920e-01 -1.368250556611461111e-01
3.132679101431598001e-01 -1.369789938659580208e-01
3.140550154450270637e-01 -1.371742909842692537e-01
3.148421207468942717e-01 -1.374208877773651638e-01
3.156292260487615353e-01 -1.377307845042599066e-01
3.164163313506287434e-01 -1.381183812724243731e-01
3.172034366524960070e-01 -1.386008528484347080e-01
3.179905419543632150e-01 -1.391985562218865935e-01
3.187776472562304786e-01 -1.399354657662952306e-01
3.195647525580976867e-01 -1.408396336730252107e-01
3.203518578599649502e-01 -1.419436653456924713e-01
3.211389631618321583e-01 -1.432851966827803913e-01
3.219260684636994219e-01 -1.449073632264075151e-01
3.227131737655666299e-01 -1.468592324182819153e-01
3.235002790674338935e-01 -1.491961905384990850e-01
3.242873843693011016e-01 -1.519802616686054542e-01
3.250744896711683651e-01 -1.552803034849534747e-01
3.258615949730355732e-01 -1.591720665195992535e-01
3.266487002749028368e-01 -1.637380675046594680e-01
3.274358055767700448e-01 -1.690672768001294513e-01
3.282229108786373084e-01 -1.752545095172164391e-01
3.290100161805045165e-01 -1.823994959356413093e-01
3.297971214823717800e-01 -1.906056893138295960e-01
3.305842267842389881e-01 -1.999786251754493982e-01
3.313713320861062517e-01 -2.106238065087744360e-01
3.321584373879734597e-01 -2.226443147391509170e-01
3.329455426898407233e-01 -2.361378768955864071e-01
3.337326479917079314e-01 -2.511933982672875931e-01
3.345197532935751950e-01 -2.678871418187723785e-01
3.353068585954424030e-01 -2.862785450677308718e-01
3.360939638973096666e-01 -3.064057023131140367e-01
3.368810691991768747e-01 -3.282803077052589558e-01
3.376681745010441382e-01 -3.518828957824758907e-01
3.384552798029113463e-01 -3.771579146827512830e-01
3.392423851047786099e-01 -4.040087249888338894e-01
3.400294904066458179e-01 -4.322930633646698828e-01
3.408165957085130815e-01 -4.618192126746890613e-01
3.416037010103802896e-01 -4.923430645024791108e-01
3.423908063122475531e-01 -5.235654419526174497e-01
3.431779116141147612e-01 -5.551316162676673827e-01
3.439650169159820248e-01 -5.866318273944897133e-01
3.447521222178492328e-01 -6.176031431496373791e-01
3.455392275197164964e-01 -6.475339212163047087e-01
3.463263328215837045e-01 -6.758695353737450562e-01
3.471134381234509680e-01 -7.020205558250105504e-01
3.479005434253181761e-01 -7.253722681237764203e-01
3.486876487271854397e-01 -7.452974642322606202e-01
3.494747540290526477e-01 -7.611701259785345064e-01
3.502618593309199113e-01 -7.723777699147476028e-01
3.510489646327871194e-01 -7.783407826372394922e-01
3.518360699346543830e-01 -7.785296738414090312e-01
3.526231752365215910e-01 -7.724809907774985440e-01
3.534102805383888546e-01 -7.598130839731465080e-01
3.541973858402560627e-01 -7.402433602882568797e-01
3.549844911421233262e-01 -7.136028587716984894e-01
3.557715964439905343e-01 -6.798478518533721537e-01
3.565587017458577979e-01 -6.390684718716456159e-01
3.573458070477250059e-01 -5.914946604026178889e-01
3.581329123495922695e-01 -5.375006302570690675e-01
3.589200176514594776e-01 -4.775998085505842594e-01
3.597071229533267411e-01 -4.124403747066051062e-01
3.604942282551939492e-01 -3.427948491302155176e-01
3.612813335570612128e-01 -2.695461122843684221e-01
3.620684388589284208e-01 -1.936701516350169960e-01
3.628555441607956844e-01 -1.162113719346639096e-01
3.636426494626628925e-01 -3.826058270408017048e-02
3.644297547645301560e-01 3.906790668536541666e-02
3.652168600663973641e-01 1.146657361915695006e-01
3.660039653682646277e-01 1.874593493486302886e-01
3.667910706701318357e-01 2.564346829832970798e-01
3.675781759719990993e-01 3.206609645320324109e-01
3.683652812738663074e-01 3.793118321599024956e-01
3.691523865757335710e-01 4.316843726142260973e-01
3.699394918776007790e-01 4.772160768129800612e-01
3.707265971794680426e-01 5.154949537045505625e-01
3.715137024813352506e-01 5.462648846640718592e-01
3.723008077832025142e-01 5.694262184263518822e-01
3.730879130850697223e-01 5.850330938877037479e-01
3.738750183869369859e-01 5.932882344428385135e-01
3.746621236888041939e-01 5.945307518598719199e-01
3.754492289906714575e-01 5.892197856248440058e-01
3.762363342925386656e-01 5.779187372191674221e-01
3.770234395944059291e-01 5.612756373330525239e-01
3.778105448962731372e-01 5.400006871475300230e-01
3.785976501981404008e-01 5.148470717475723823e-01
3.793847555000076088e-01 4.865914017021328863e-01
3.801718608018748724e-01 4.560128160451031309e-01
3.809589661037420805e-01 4.238745393545899631e-01
3.817460714056093440e-01 3.909073723642053633e-01
3.825331767074765521e-01 3.577948186399029229e-01
3.833202820093438157e-01 3.251611487381398380e-01
3.841073873112110237e-01 2.935628480450578337e-01
3.848944926130782873e-01 2.634819609643683780e-01
3.856815979149454954e-01 2.353216289204034251e-01
3.864687032168127589e-01 2.094056255667666733e-01
3.872558085186799670e-01 1.859788122818548661e-01
3.880429138205472306e-01 1.652051869166775155e-01
3.888300191224144386e-01 1.471711980476682058e-01
3.896171244242817022e-01 1.318951238851142627e-01
3.904042297261489103e-01 1.193337983849653838e-01
3.911913350280161739e-01 1.093879746505028727e-01
3.919784403298833819e-01 1.019098908640165835e-01
3.927655456317506455e-01 9.670787172115735686e-02
3.935526509336178536e-01 9.355112042974389475e-02
3.943397562354851171e-01 9.218318371513900544e-02
3.951268615373523252e-01 9.233306962931364659e-02
3.959139668392195888e-01 9.371435515145720707e-02
3.967010721410867968e-01 9.602961100161855335e-02
3.974881774429540604e-01 9.898508904732938873e-02
3.982752827448212685e-01 1.022948496507818383e-01
3.990623880466885320e-01 1.056773408045010854e-01
3.998494933485557401e-01 1.088640990253957330e-01
4.006365986504230037e-01 1.116112018135935191e-01
4.014237039522902117e-01 1.136979290533561837e-01
4.022108092541574753e-01 1.149254244139947811e-01
4.029979145560246834e-01 1.151256193437681929e-01
4.037850198578918914e-01 1.141659925332942915e-01
4.045721251597591550e-01 1.119418357875059389e-01
4.053592304616263631e-01 1.083767002253457346e-01
4.061463357634936266e-01 1.034322126730529146e-01
4.069334410653608347e-01 9.710748073123798285e-02
4.077205463672280983e-01 8.943106118037369434e-02
4.085076516690953063e-01 8.045858024908958406e-02
4.092947569709625699e-01 7.027689814465709617e-02
4.100818622728297780e-01 5.899994452250467702e-02
4.108689675746970416e-01 4.676455395573131391e-02
4.116560728765642496e-01 3.372749127047480755e-02
4.124431781784315132e-01 2.006366674713144782e-02
4.132302834802987213e-01 5.958996925237824982e-03
4.140173887821659848e-01 -8.395247259329940981e-03
4.148044940840331929e-01 -2.280154807496814762e-02
4.155915993859004565e-01 -3.706298272299912711e-02
4.163787046877676645e-01 -5.099006506632686175e-02
4.171658099896349281e-01 -6.440491015992244606e-02
4.179529152915021362e-01 -7.714004438497101823e-02
4.187400205933693997e-01 -8.904346237874705139e-02
4.195271258952366078e-01 -9.998636116265957607e-02
4.203142311971038714e-01 -1.098643300081044716e-01
4.211013364989710794e-01 -1.185967555035385423e-01
4.218884418008383430e-01 -1.261274164874058856e-01
4.226755471027055511e-01 -1.324283511121602253e-01
4.234626524045728146e-01 -1.374983695119482707e-01
4.242497577064400227e-01 -1.413600791379778787e-01
4.250368630083072863e-01 -1.440616695572970452e-01
4.258239683101744943e-01 -1.456781023186469737e-01
4.266110736120417579e-01 -1.463004021597850146e-01
4.273981789139089660e-01 -1.460308975440722801e-01
4.281852842157762296e-01 -1.449876826574225674e-01
4.289723895176434376e-01 -1.433058072741556499e-01
4.297594948195107012e-01 -1.411262704978561988e-01
4.305466001213779093e-01 -1.385891790327193895e-01
4.313337054232451728e-01 -1.358340446500135856e-01
4.321208107251123809e-01 -1.329977019228381074e-01
