0.000000000000000000e+00 -8.794432379700467539e-02
7.871053018672357097e-04 -1.363013644637935950e-01
1.574210603734471419e-03 -1.363013644637935950e-01
2.361315905601707021e-03 -1.363013644637935950e-01
3.148421207468942839e-03 -1.363013644637935950e-01
3.935526509336178223e-03 -1.363013644637935950e-01
4.722631811203414041e-03 -1.363013644637935950e-01
5.509737113070649860e-03 -1.363013644637935950e-01
6.296842414937885678e-03 -1.363013644637935950e-01
7.083947716805121496e-03 -1.363013644637935950e-01
7.871053018672356447e-03 -1.363013644637935950e-01
8.658158320539592265e-03 -1.363013644637935950e-01
9.445263622406828083e-03 -1.363013644637935950e-01
1.023236892427406390e-02 -1.363013644637935950e-01
1.101947422614129972e-02 -1.363013644637935950e-01
1.180657952800853554e-02 -1.363013644637935950e-01
1.259368482987577136e-02 -1.363013644637935950e-01
1.338079013174300717e-02 -1.363013644637935950e-01
1.416789543361024299e-02 -1.363013644637935950e-01
1.495500073547747881e-02 -1.363013644637935950e-01
1.574210603734471289e-02 -1.363013644637935950e-01
1.652921133921194871e-02 -1.363013644637935950e-01
1.731631664107918453e-02 -1.363013644637935950e-01
1.810342194294642035e-02 -1.363013644637935950e-01
1.889052724481365617e-02 -1.363013644637935950e-01
1.967763254668089198e-02 -1.363013644637935950e-01
2.046473784854812780e-02 -1.363013644637935950e-01
2.125184315041536362e-02 -1.363013644637935950e-01
2.203894845228259944e-02 -1.363013644637935950e-01
2.282605375414983526e-02 -1.363013644637935950e-01
2.361315905601707107e-02 -1.363013644637935950e-01
2.440026435788430689e-02 -1.363013644637935950e-01
2.518736965975154271e-02 -1.363013644637935950e-01
2.597447496161877853e-02 -1.363013644637935950e-01
2.676158026348601435e-02 -1.363013644637935950e-01
2.754868556535325017e-02 -1.363013644637935950e-01
2.833579086722048598e-02 -1.363013644637935950e-01
2.912289616908772180e-02 -1.363013644637935950e-01
2.991000147095495762e-02 -1.363013644637935950e-01
3.069710677282219344e-02 -1.363013644637935950e-01
3.148421207468942579e-02 -1.363013644637935950e-01
3.227131737655666160e-02 -1.363013644637935950e-01
3.305842267842389742e-02 -1.363013644637935950e-01
3.384552798029113324e-02 -1.363013644637935950e-01
3.463263328215836906e-02 -1.363013644637935950e-01
3.541973858402560488e-02 -1.363013644637935950e-01
3.620684388589284070e-02 -1.363013644637935950e-01
3.699394918776007651e-02 -1.363013644637935950e-01
3.778105448962731233e-02 -1.363013644637935950e-01
3.856815979149454815e-02 -1.363013644637935950e-01
3.935526509336178397e-02 -1.363013644637935950e-01
4.014237039522901979e-02 -1.363013644637935950e-01
4.092947569709625560e-02 -1.363013644637935950e-01
4.171658099896349142e-02 -1.363013644637935950e-01
4.250368630083072724e-02 -1.363013644637935950e-01
4.329079160269796306e-02 -1.363013644637935950e-01
4.407789690456519888e-02 -1.363013644637935950e-01
4.486500220643243469e-02 -1.363013644637935950e-01
4.565210750829967051e-02 -1.363013644637935950e-01
4.643921281016690633e-02 -1.363013644637935950e-01
4.722631811203414215e-02 -1.363013644637935950e-01
4.801342341390137797e-02 -1.363013644637935950e-01
4.880052871576861379e-02 -1.363013644637935950e-01
4.958763401763584960e-02 -1.363013644637935950e-01
5.037473931950308542e-02 -1.363013644637935950e-01
5.116184462137032124e-02 -1.363013644637935950e-01
5.194894992323755706e-02 -1.363013644637935950e-01
5.273605522510479288e-02 -1.363013644637935950e-01
5.352316052697202869e-02 -1.363013644637935950e-01
5.431026582883926451e-02 -1.363013644637935950e-01
5.509737113070650033e-02 -1.363013644637935950e-01
5.588447643257373615e-02 -1.363013644637935950e-01
5.667158173444097197e-02 -1.363013644637935950e-01
5.745868703630820779e-02 -1.363013644637935950e-01
5.824579233817544360e-02 -1.363013644637935950e-01
5.903289764004267942e-02 -1.363013644637935950e-01
5.982000294190991524e-02 -1.363013644637935950e-01
6.060710824377715106e-02 -1.363013644637935950e-01
6.139421354564438688e-02 -1.363013644637935950e-01
6.218131884751162269e-02 -1.363013644637935950e-01
6.296842414937885157e-02 -1.363013644637935950e-01
6.375552945124608739e-02 -1.363013644637935950e-01
6.454263475311332321e-02 -1.363013644637935950e-01
6.532974005498055903e-02 -1.363013644637935950e-01
6.611684535684779485e-02 -1.363013644637935950e-01
6.690395065871503066e-02 -1.363013644637935950e-01
6.769105596058226648e-02 -1.363013644637935950e-01
6.847816126244950230e-02 -1.363013644637935950e-01
6.926526656431673812e-02 -1.363013644637935950e-01
7.005237186618397394e-02 -1.363013644637935950e-01
7.083947716805120975e-02 -1.363013644637935950e-01
7.162658246991844557e-02 -1.363013644637935950e-01
7.241368777178568139e-02 -1.363013644637935950e-01
7.320079307365291721e-02 -1.363013644637935950e-01
7.398789837552015303e-02 -1.363013644637935950e-01
7.477500367738738885e-02 -1.363013644637935950e-01
7.556210897925462466e-02 -1.363013644637935950e-01
7.634921428112186048e-02 -1.363013644637935950e-01
7.713631958298909630e-02 -1.363013644637935950e-01
7.792342488485633212e-02 -1.363013644637935950e-01
7.871053018672356794e-02 -1.363013644637935950e-01
7.949763548859080375e-02 -1.363013644637935950e-01
8.028474079045803957e-02 -1.363013644637935950e-01
8.107184609232527539e-02 -1.363013644637935950e-01
8.185895139419251121e-02 -1.363013644637935950e-01
8.264605669605974703e-02 -1.363013644637935950e-01
8.343316199792698284e-02 -1.363013644637935950e-01
8.422026729979421866e-02 -1.363013644637935950e-01
8.500737260166145448e-02 -1.363013644637935950e-01
8.579447790352869030e-02 -1.363013644637935950e-01
8.658158320539592612e-02 -1.363013644637935950e-01
8.736868850726316194e-02 -1.363013644637935950e-01
8.815579380913039775e-02 -1.363013644637935950e-01
8.894289911099763357e-02 -1.363013644637935950e-01
8.973000441286486939e-02 -1.363013644637935950e-01
9.051710971473210521e-02 -1.363013644637935950e-01
9.130421501659934103e-02 -1.363013644637935950e-01
9.209132031846657684e-02 -1.363013644637935950e-01
9.287842562033381266e-02 -1.363013644637935950e-01
9.366553092220104848e-02 -1.363013644637935950e-01
9.445263622406828430e-02 -1.363013644637935950e-01
9.523974152593552012e-02 -1.363013644637935950e-01
9.602684682780275593e-02 -1.363013644637935950e-01
9.681395212966999175e-02 -1.363013644637935950e-01
9.760105743153722757e-02 -1.363013644637935950e-01
9.838816273340446339e-02 -1.363013644637935950e-01
9.917526803527169921e-02 -1.363013644637935950e-01
9.996237333713893503e-02 -1.363013644637935950e-01
1.007494786390061708e-01 -1.363013644637935950e-01
1.015365839408734067e-01 -1.363013644637935950e-01
1.023236892427406425e-01 -1.363013644637935950e-01
1.031107945446078783e-01 -1.363013644637935950e-01
1.038978998464751141e-01 -1.363013644637935950e-01
1.046850051483423499e-01 -1.363013644637935950e-01
1.054721104502095858e-01 -1.363013644637935950e-01
1.062592157520768216e-01 -1.363013644637935950e-01
1.070463210539440574e-01 -1.363013644637935950e-01
1.078334263558112932e-01 -1.363013644637935950e-01
1.086205316576785290e-01 -1.363013644637935950e-01
1.094076369595457648e-01 -1.363013644637935950e-01
1.101947422614130007e-01 -1.363013644637935950e-01
1.109818475632802365e-01 -1.363013644637935950e-01
1.117689528651474723e-01 -1.363013644637935950e-01
1.125560581670147081e-01 -1.363013644637935950e-01
1.133431634688819439e-01 -1.363013644637935950e-01
1.141302687707491798e-01 -1.363013644637935950e-01
1.149173740726164156e-01 -1.363013644637935950e-01
1.157044793744836514e-01 -1.363013644637935950e-01
1.164915846763508872e-01 -1.363013644637935950e-01
1.172786899782181230e-01 -1.363013644637935950e-01
1.180657952800853588e-01 -1.363013644637935950e-01
1.188529005819525947e-01 -1.363013644637935950e-01
1.196400058838198305e-01 -1.363013644637935950e-01
1.204271111856870663e-01 -1.363013644637935950e-01
1.212142164875543021e-01 -1.363013644637935950e-01
1.220013217894215379e-01 -1.363013644637935950e-01
1.227884270912887738e-01 -1.363013644637935950e-01
1.235755323931560096e-01 -1.363013644637935950e-01
1.243626376950232454e-01 -1.363013644637935950e-01
1.251497429968904673e-01 -1.363013644637935950e-01
1.259368482987577031e-01 -1.363013644637935950e-01
1.267239536006249390e-01 -1.363013644637935950e-01
1.275110589024921748e-01 -1.363013644637935950e-01
1.282981642043594106e-01 -1.363013644637935950e-01
1.290852695062266464e-01 -1.363013644637935950e-01
1.298723748080938822e-01 -1.363013644637935950e-01
1.306594801099611181e-01 -1.363013644637935950e-01
1.314465854118283539e-01 -1.363013644637935950e-01
1.322336907136955897e-01 -1.363013644637935950e-01
1.330207960155628255e-01 -1.363013644637935950e-01
1.338079013174300613e-01 -1.363013644637935950e-01
1.345950066192972971e-01 -1.363013644637935950e-01
1.353821119211645330e-01 -1.363013644637935950e-01
1.361692172230317688e-01 -1.363013644637935950e-01
1.369563225248990046e-01 -1.363013644637935950e-01
1.377434278267662404e-01 -1.363013644637935950e-01
1.385305331286334762e-01 -1.363013644637935950e-01
1.393176384305007121e-01 -1.363013644637935950e-01
1.401047437323679479e-01 -1.363013644637935950e-01
1.408918490342351837e-01 -1.363013644637935950e-01
1.416789543361024195e-01 -1.363013644637935950e-01
1.424660596379696553e-01 -1.363013644637935950e-01
1.432531649398368911e-01 -1.363013644637935950e-01
1.440402702417041270e-01 -1.363013644637935950e-01
1.448273755435713628e-01 -1.363013644637935950e-01
1.456144808454385986e-01 -1.363013644637935950e-01
1.464015861473058344e-01 -1.363013644637935950e-01
1.471886914491730702e-01 -1.363013644637935950e-01
1.479757967510403061e-01 -1.363013644637935950e-01
1.487629020529075419e-01 -1.363013644637935950e-01
1.495500073547747777e-01 -1.363013644637935950e-01
1.503371126566420135e-01 -1.363013644637935950e-01
1.511242179585092493e-01 -1.363013644637935950e-01
1.519113232603764851e-01 -1.363013644637935950e-01
1.526984285622437210e-01 -1.363013644637935950e-01
1.534855338641109568e-01 -1.363013644637935950e-01
1.542726391659781926e-01 -1.363013644637935950e-01
1.550597444678454284e-01 -1.363013644637935950e-01
1.558468497697126642e-01 -1.363013644637935950e-01
1.566339550715799001e-01 -1.363013644637935950e-01
1.574210603734471359e-01 -1.363013644637935950e-01
1.582081656753143717e-01 -1.363013644637935950e-01
1.589952709771816075e-01 -1.363013644637935950e-01
1.597823762790488433e-01 -1.363013644637935950e-01
1.605694815809160791e-01 -1.363013644637935950e-01
1.613565868827833150e-01 -1.363013644637935950e-01
1.621436921846505508e-01 -1.363013644637935950e-01
1.629307974865177866e-01 -1.363013644637935950e-01
1.637179027883850224e-01 -1.363013644637935950e-01
1.645050080902522582e-01 -1.363013644637935950e-01
1.652921133921194941e-01 -1.363013644637935950e-01
1.660792186939867299e-01 -1.363013644637935950e-01
1.668663239958539657e-01 -1.363013644637935950e-01
1.676534292977212015e-01 -1.363013644637935950e-01
1.684405345995884373e-01 -1.363013644637935950e-01
1.692276399014556731e-01 -1.363013644637935950e-01
1.700147452033229090e-01 -1.363013644637935950e-01
1.708018505051901448e-01 -1.363013644637935950e-01
1.715889558070573806e-01 -1.363013644637935950e-01
1.723760611089246164e-01 -1.363013644637935950e-01
1.731631664107918522e-01 -1.363013644637935950e-01
1.739502717126590881e-01 -1.363013644637935950e-01
1.747373770145263239e-01 -1.363013644637935950e-01
1.755244823163935597e-01 -1.363013644637935950e-01
1.763115876182607955e-01 -1.363013644637935950e-01
1.770986929201280313e-01 -1.363013644637935950e-01
1.778857982219952671e-01 -1.363013644637935950e-01
1.786729035238625030e-01 -1.363013644637935950e-01
1.794600088257297388e-01 -1.363013644637935950e-01
1.802471141275969746e-01 -1.363013644637935950e-01
1.810342194294642104e-01 -1.363013644637935950e-01
1.818213247313314462e-01 -1.363013644637935950e-01
1.826084300331986821e-01 -1.363013644637935950e-01
1.833955353350659179e-01 -1.363013644637935950e-01
1.841826406369331537e-01 -1.363013644637935950e-01
1.849697459388003895e-01 -1.363013644637935950e-01
1.857568512406676253e-01 -1.363013644637935950e-01
1.865439565425348611e-01 -1.363013644637935950e-01
1.873310618444020970e-01 -1.363013644637935950e-01
1.881181671462693328e-01 -1.363013644637935950e-01
1.889052724481365686e-01 -1.363013644637935950e-01
1.896923777500038044e-01 -1.363013644637935950e-01
1.904794830518710402e-01 -1.363013644637935950e-01
1.912665883537382761e-01 -1.363013644637935950e-01
1.920536936556055119e-01 -1.363013644637935950e-01
1.928407989574727477e-01 -1.363013644637935950e-01
1.936279042593399835e-01 -1.363013644637935950e-01
1.944150095612072193e-01 -1.363013644637935950e-01
1.952021148630744551e-01 -1.363013644637935950e-01
1.959892201649416910e-01 -1.363013644637935950e-01
1.967763254668089268e-01 -1.363013644637935950e-01
1.975634307686761626e-01 -1.363013644637935950e-01
1.983505360705433984e-01 -1.363013644637935950e-01
1.991376413724106342e-01 -1.363013644637935950e-01
1.999247466742778701e-01 -1.363013644637935950e-01
2.007118519761451059e-01 -1.363013644637935950e-01
2.014989572780123417e-01 -1.363013644637935950e-01
2.022860625798795775e-01 -1.363013644637935950e-01
2.030731678817468133e-01 -1.363013644637935950e-01
2.038602731836140491e-01 -1.363013644637935950e-01
2.046473784854812850e-01 -1.363013644637935950e-01
2.054344837873485208e-01 -1.363013644637935950e-01
2.062215890892157566e-01 -1.363013644637935950e-01
2.070086943910829924e-01 -1.363013644637935950e-01
2.077957996929502282e-01 -1.363013644637935950e-01
2.085829049948174641e-01 -1.363013644637935950e-01
2.093700102966846999e-01 -1.363013644637935950e-01
2.101571155985519357e-01 -1.363013644637935950e-01
2.109442209004191715e-01 -1.363013644637935950e-01
2.117313262022864073e-01 -1.363013644637935950e-01
2.125184315041536431e-01 -1.363013644637935950e-01
2.133055368060208790e-01 -1.363013644637935950e-01
2.140926421078881148e-01 -1.363013644637935950e-01
2.148797474097553506e-01 -1.363013644637935950e-01
2.156668527116225864e-01 -1.363013644637935950e-01
2.164539580134898222e-01 -1.363013644637935950e-01
2.172410633153570581e-01 -1.363013644637935950e-01
2.180281686172242939e-01 -1.363013644637935950e-01
2.188152739190915297e-01 -1.363013644637935950e-01
2.196023792209587655e-01 -1.363013644637935950e-01
2.203894845228260013e-01 -1.363013644637935950e-01
2.211765898246932371e-01 -1.363013644637935950e-01
2.219636951265604730e-01 -1.363013644637935950e-01
2.227508004284277088e-01 -1.363013644637935950e-01
2.235379057302949446e-01 -1.363013644637935950e-01
2.243250110321621804e-01 -1.363013644637935950e-01
2.251121163340294162e-01 -1.363013644637935950e-01
2.258992216358966520e-01 -1.363013644637935950e-01
2.266863269377638879e-01 -1.363013644637935950e-01
2.274734322396311237e-01 -1.363013644637935950e-01
2.282605375414983595e-01 -1.363013644637935950e-01
2.290476428433655953e-01 -1.363013644637935950e-01
2.298347481452328311e-01 -1.363013644637935950e-01
2.306218534471000670e-01 -1.363013644637935950e-01
2.314089587489673028e-01 -1.363013644637935950e-01
2.321960640508345386e-01 -1.363013644637935950e-01
2.329831693527017744e-01 -1.363013644637935950e-01
2.337702746545690102e-01 -1.363013644637935950e-01
2.345573799564362460e-01 -1.363013644637935950e-01
2.353444852583034819e-01 -1.363013644637935950e-01
2.361315905601707177e-01 -1.363013644637935950e-01
2.369186958620379535e-01 -1.363013644637935950e-01
2.377058011639051893e-01 -1.363013644637935950e-01
2.384929064657724251e-01 -1.363013644637935950e-01
2.392800117676396610e-01 -1.363013644637935950e-01
2.400671170695068968e-01 -1.363013644637935950e-01
2.408542223713741326e-01 -1.363013644637935950e-01
2.416413276732413684e-01 -1.363013644637935950e-01
2.424284329751086042e-01 -1.363013644637935950e-01
2.432155382769758400e-01 -1.363013644637935950e-01
2.440026435788430759e-01 -1.363013644637935950e-01
2.447897488807103117e-01 -1.363013644637935950e-01
2.455768541825775475e-01 -1.363013644637935950e-01
2.463639594844447833e-01 -1.363013644637935950e-01
2.471510647863120191e-01 -1.363013644637935950e-01
2.479381700881792550e-01 -1.363013644637935950e-01
2.487252753900464908e-01 -1.363013644637935950e-01
2.495123806919137266e-01 -1.363013644637935950e-01
2.502994859937809347e-01 -1.363013644637935950e-01
2.510865912956481982e-01 -1.363013644637935950e-01
2.518736965975154063e-01 -1.363013644637935950e-01
2.526608018993826699e-01 -1.363013644637935950e-01
2.534479072012498779e-01 -1.363013644637935950e-01
2.542350125031171415e-01 -1.363013644637935950e-01
2.550221178049843496e-01 -1.363013644637935950e-01
2.558092231068516131e-01 -1.363013644637935950e-01
2.565963284087188212e-01 -1.363013644637935950e-01
2.573834337105860848e-01 -1.363013644637935950e-01
2.581705390124532928e-01 -1.363013644637935950e-01
2.589576443143205564e-01 -1.363013644637935950e-01
2.597447496161877645e-01 -1.363013644637935950e-01
2.605318549180550280e-01 -1.363013644637935950e-01
2.613189602199222361e-01 -1.363013644637935950e-01
2.621060655217894997e-01 -1.363013644637935950e-01
2.628931708236567077e-01 -1.363013644637935950e-01
2.636802761255239713e-01 -1.363013644637935950e-01
2.644673814273911794e-01 -1.363013644637935950e-01
2.652544867292584430e-01 -1.363013644637935950e-01
2.660415920311256510e-01 -1.363013644637935950e-01
2.668286973329929146e-01 -1.363013644637935950e-01
2.676158026348601227e-01 -1.363013644637935950e-01
2.684029079367273862e-01 -1.363013644637935950e-01
2.691900132385945943e-01 -1.363013644637938171e-01
2.699771185404618579e-01 -1.363013644637939281e-01
2.707642238423290659e-01 -1.363013644637943722e-01
2.715513291441963295e-01 -1.363013644637952604e-01
2.723384344460635376e-01 -1.363013644637973698e-01
2.731255397479308011e-01 -1.363013644638018107e-01
2.739126450497980092e-01 -1.363013644638113586e-01
2.746997503516652728e-01 -1.363013644638314537e-01
2.754868556535324808e-01 -1.363013644638731980e-01
2.762739609553997444e-01 -1.363013644639585742e-01
2.770610662572669525e-01 -1.363013644641312139e-01
2.778481715591342160e-01 -1.363013644644741618e-01
2.786352768610014241e-01 -1.363013644651452916e-01
2.794223821628686877e-01 -1.363013644664370361e-01
2.802094874647358957e-01 -1.363013644688825243e-01
2.809965927666031593e-01 -1.363013644734356600e-01
2.817836980684703674e-01 -1.363013644817711034e-01
2.825708033703376310e-01 -1.363013644967763227e-01
2.833579086722048390e-01 -1.363013645233380755e-01
2.841450139740721026e-01 -1.363013645695837495e-01
2.849321192759393107e-01 -1.363013646487994945e-01
2.857192245778065742e-01 -1.363013647823548835e-01
2.865063298796737823e-01 -1.363013650040980629e-01
2.872934351815410459e-01 -1.363013653668903036e-01
2.880805404834082539e-01 -1.363013659522319676e-01
2.888676457852755175e-01 -1.363013668843486847e-01
2.896547510871427256e-01 -1.363013683507015017e-01
2.904418563890099891e-01 -1.363013706317465212e-01
2.912289616908771972e-01 -1.363013741439940141e-01
2.920160669927444608e-01 -1.363013795021481567e-01
2.928031722946116688e-01 -1.363013876085185094e-01
2.935902775964789324e-01 -1.363013997812380085e-01
2.943773828983461405e-01 -1.363014179372986634e-01
2.951644882002134040e-01 -1.363014448526248534e-01
2.959515935020806121e-01 -1.363014845296158795e-01
2.967386988039478757e-01 -1.363015427134851576e-01
2.975258041058150837e-01 -1.363016276135530225e-01
2.983129094076823473e-01 -1.363017509048642939e-01
2.991000147095495554e-01 -1.363019291105134201e-01
2.998871200114168190e-01 -1.363021854983214043e-01
3.006742253132840270e-01 -1.363025526672460019e-01
3.014613306151512906e-01 -1.363030760520492768e-01
3.022484359170184987e-01 -1.363038186435334698e-01
3.030355412188857622e-01 -1.363048673078796069e-01
3.038226465207529703e-01 -1.363063411853885354e-01
3.046097518226202339e-01 -1.363084027954445387e-01
3.053968571244874419e-01 -1.363112726170607747e-01
3.061839624263547055e-01 -1.363152481115942338e-01
3.069710677282219136e-01 -1.363207283953533633e-01
3.077581730300891771e-01 -1.363282460062035240e-01
3.085452783319563852e-01 -1.363385075835896743e-01
3.093323836338236488e-01 -1.363524455391275092e-01
3.101194889356908568e-01 -1.363712832624268678e-01
3.109065942375581204e-01 -1.363966168192920492e-01
3.116936995394253285e-01 -1.364305165442619705e-01
3.124808048412925920e-01 -1.364756522687449181e-01
3.132679101431598001e-01 -1.365354466408864598e-01
3.140550154450270637e-01 -1.366142611646623539e-01
3.148421207468942717e-01 -1.367176201394363355e-01
3.156292260487615353e-01 -1.368524774792440057e-01
3.164163313506287434e-01 -1.370275322080767300e-01
3.172034366524960070e-01 -1.372535973880147919e-01
3.179905419543632150e-01 -1.375440274186180423e-01
3.187776472562304786e-01 -1.379152074658467342e-01
3.195647525580976867e-01 -1.383871060554020538e-01
3.203518578599649502e-01 -1.389838921921765502e-01
3.211389631618321583e-01 -1.397346154807199703e-01
3.219260684636994219e-01 -1.406739404955709150e-01
3.227131737655666299e-01 -1.418429241447876077e-01
3.235002790674338935e-01 -1.432898254236256719e-01
3.242873843693011016e-01 -1.450709180731625247e-01
3.250744896711683651e-01 -1.472512885689438722e-01
3.258615949730355732e-01 -1.499055713627994724e-01
3.266487002749028368e-01 -1.531185809990768254e-01
3.274358055767700448e-01 -1.569857925926984032e-01
3.282229108786373084e-01 -1.616136108271545302e-01
3.290100161805045165e-01 -1.671193571727418448e-01
3.297971214823717800e-01 -1.736308864336998381e-01
3.305842267842389881e-01 -1.812857861451128150e-01
3.313713320861062517e-01 -1.902300681852626685e-01
3.321584373879734597e-01 -2.006162584831857609e-01
3.329455426898407233e-01 -2.126008708776911948e-01
3.337326479917079314e-01 -2.263410885071303058e-01
3.345197532935751950e-01 -2.419907619558836487e-01
3.353068585954424030e-01 -2.596956033118130724e-01
3.360939638973096666e-01 -2.795876319096439744e-01
3.368810691991768747e-01 -3.017788717602741810e-01
3.376681745010441382e-01 -3.263543982721958114e-01
3.384552798029113463e-01 -3.533649108857406240e-01
3.392423851047786099e-01 -3.828189617617272500e-01
3.400294904066458179e-01 -4.146751286951469995e-01
3.408165957085130815e-01 -4.488340578872712650e-01
3.416037010103802896e-01 -4.851313619338414318e-01
3.423908063122475531e-01 -5.233311127461850454e-01
3.431779116141147612e-01 -5.631202268717221404e-01
3.439650169159820248e-01 -6.041052305461767080e-01
3.447521222178492328e-01 -6.458102517949497745e-01
3.455392275197164964e-01 -6.876768716998884479e-01
3.463263328215837045e-01 -7.290670990639176452e-01
3.471134381234509680e-01 -7.692699890398482232e-01
3.479005434253181761e-01 -8.075106414908900243e-01
3.486876487271854397e-01 -8.429607610500982062e-01
3.494747540290526477e-01 -8.747541253764623548e-01
3.502618593309199113e-01 -9.020054742753234045e-01
3.510489646327871194e-01 -9.238298450184853072e-01
3.518360699346543830e-01 -9.393644361292652345e-01
3.526231752365215910e-01 -9.477934458321750633e-01
3.534102805383888546e-01 -9.483723155696772711e-01
3.541973858402560627e-01 -9.404537583177200455e-01
3.549844911421233262e-01 -9.235082837717022430e-01
3.557715964439905343e-01 -8.971500779287766569e-01
3.565587017458577979e-01 -8.611560409414992234e-01
3.573458070477250059e-01 -8.154776857763584852e-01
3.581329123495922695e-01 -7.602569039363290537e-01
3.589200176514594776e-01 -6.958322122565998580e-01
3.597071229533267411e-01 -6.227387529045740333e-01
3.604942282551939492e-01 -5.417035339164568697e-01
3.612813335570612128e-01 -4.536379925356740506e-01
3.620684388589284208e-01 -3.596201472250766251e-01
3.628555441607956844e-01 -2.608708003498800831e-01
3.636426494626628925e-01 -1.587297408606032079e-01
3.644297547645301560e-01 -5.462897231137542331e-02
3.652168600663973641e-01 4.994357804858129413e-02
3.660039653682646277e-01 1.534803501834698380e-01
3.667910706701318357e-01 2.544874675148030008e-01
3.675781759719990993e-01 3.515216227628477075e-01
3.683652812738663074e-01 4.432233941905097119e-01
3.691523865757335710e-01 5.283487770484396329e-01
3.699394918776007790e-01 6.057968479561153252e-01
3.707265971794680426e-01 6.746335622189034709e-01
3.715137024813352506e-01 7.341090068829276838e-01
3.723008077832025142e-01 7.836719765917690150e-01
3.730879130850697223e-01 8.229753279828040391e-01
3.738750183869369859e-01 8.518798467512274097e-01
3.746621236888041939e-01 8.704518679183459451e-01
3.754492289906714575e-01 8.789513771730483871e-01
3.762363342925386656e-01 8.778141628840088195e-01
3.770234395944059291e-01 8.676367940432936354e-01
3.778105448962731372e-01 8.491547564813108906e-01
3.785976501981404008e-01 8.232168707509703864e-01
3.793847555000076088e-01 7.907583714127590646e-01
3.801718608018748724e-01 7.527782252169161747e-01
3.809589661037420805e-01 7.103139208206743493e-01
3.817460714056093440e-01 6.644123170748574836e-01
3.825331767074765521e-01 6.161039493581195181e-01
3.833202820093438157e-01 5.663828948157099141e-01
3.841073873112110237e-01 5.161864237942233036e-01
3.848944926130782873e-01 4.663766312874928488e-01
3.856815979149454954e-01 4.177275250329184342e-01
3.864687032168127589e-01 3.709138042863280305e-01
3.872558085186799670e-01 3.265009376886587322e-01
3.880429138205472306e-01 2.849427905061199251e-01
3.888300191224144386e-01 2.465832630196980180e-01
3.896171244242817022e-01 2.116546765371989380e-01
3.904042297261489103e-01 1.802804424575668030e-01
3.911913350280161739e-01 1.524854735970997410e-01
3.919784403298833819e-01 1.282061121326605324e-01
3.927655456317506455e-01 1.072955583646304500e-01
3.935526509336178536e-01 8.953636430836731108e-02
3.943397562354851171e-01 7.465843041523201329e-02
3.951268615373523252e-01 6.235224283020301961e-02
3.959139668392195888e-01 5.227824358547028538e-02
3.967010721410867968e-01 4.407605206079567850e-02
3.974881774429540604e-01 3.737829717405372065e-02
3.982752827448212685e-01 3.182489577146951909e-02
3.990623880466885320e-01 2.706989435627282781e-02
3.998494933485557401e-01 2.278994688290092441e-02
4.006365986504230037e-01 1.869472608321287588e-02
4.014237039522902117e-01 1.453554999392414615e-02
4.022108092541574753e-01 1.010419209075341662e-02
4.029979145560246834e-01 5.232881288422364108e-03
4.037850198578918914e-01 -1.982613977622449397e-04
4.045721251597591550e-01 -6.260330452519391464e-03
4.053592304616263631e-01 -1.298723705266058293e-02
4.061463357634936266e-01 -2.037898119818604137e-02
4.069334410653608347e-01 -2.839956944704102870e-02
4.077205463672280983e-01 -3.698326171084564962e-02
4.085076516690953063e-01 -4.604260284940153714e-02
4.092947569709625699e-01 -5.546842267069262977e-02
4.100818622728297780e-01 -6.513102579673790693e-02
4.108689675746970416e-01 -7.489149538919548377e-02
4.116560728765642496e-01 -8.461180700911308250e-02
4.124431781784315132e-01 -9.415512608339149381e-02
4.132302834802987213e-01 -1.033887825694171925e-01
4.140173887821659848e-01 -1.121857582873785342e-01
4.148044940840331929e-01 -1.204258767861188240e-01
4.155915993859004565e-01 -1.280029425382545050e-01
4.163787046877676645e-01 -1.348297978700508937e-01
4.171658099896349281e-01 -1.408317786992296927e-01
4.179529152915021362e-01 -1.459455246691169217e-01
4.187400205933693997e-01 -1.501258208772969782e-01
4.195271258952366078e-01 -1.533432181439073894e-01
4.203142311971038714e-01 -1.555774887494465464e-01
4.211013364989710794e-01 -1.568247656298918935e-01
4.218884418008383430e-01 -1.571008145077963380e-01
4.226755471027055511e-01 -1.564282428343675146e-01
4.234626524045728146e-01 -1.548364997894681183e-01
4.242497577064400227e-01 -1.523657433456380161e-01
4.250368630083072863e-01 -1.490683276004108881e-01
4.258239683101744943e-01 -1.450049357122916716e-01
4.266110736120417579e-01 -1.402466621659991253e-01
4.273981789139089660e-01 -1.348738229066132055e-01
4.281852842157762296e-01 -1.289706009432364242e-01
4.289723895176434376e-01 -1.226271286142360806e-01
4.297594948195107012e-01 -1.159406774530981066e-01
4.305466001213779093e-01 -1.090138733896467427e-01
4.313337054232451728e-01 -1.019579688811408369e-01
4.321208107251123809e-01 -9.489373531166378495e-02
