0.000000000000000000e+00 -9.374189879938970016e-01
7.871053018672357097e-04 2.197128060481046141e-02
1.574210603734471419e-03 2.197128060481046141e-02
2.361315905601707021e-03 2.197128060481046141e-02
3.148421207468942839e-03 2.197128060481046141e-02
3.935526509336178223e-03 2.197128060481046141e-02
4.722631811203414041e-03 2.197128060481046141e-02
5.509737113070649860e-03 2.197128060481046141e-02
6.296842414937885678e-03 2.197128060481046141e-02
7.083947716805121496e-03 2.197128060481046141e-02
7.871053018672356447e-03 2.197128060481046141e-02
8.658158320539592265e-03 2.197128060481046141e-02
9.445263622406828083e-03 2.197128060481046141e-02
1.023236892427406390e-02 2.197128060481046141e-02
1.101947422614129972e-02 2.197128060481046141e-02
1.180657952800853554e-02 2.197128060481046141e-02
1.259368482987577136e-02 2.197128060481046141e-02
1.338079013174300717e-02 2.197128060481046141e-02
1.416789543361024299e-02 2.197128060481046141e-02
1.495500073547747881e-02 2.197128060481046141e-02
1.574210603734471289e-02 2.197128060481046141e-02
1.652921133921194871e-02 2.197128060481046141e-02
1.731631664107918453e-02 2.197128060481046141e-02
1.810342194294642035e-02 2.197128060481046141e-02
1.889052724481365617e-02 2.197128060481046141e-02
1.967763254668089198e-02 2.197128060481046141e-02
2.046473784854812780e-02 2.197128060481046141e-02
2.125184315041536362e-02 2.197128060481046141e-02
2.203894845228259944e-02 2.197128060481046141e-02
2.282605375414983526e-02 2.197128060481046141e-02
2.361315905601707107e-02 2.197128060481046141e-02
2.440026435788430689e-02 2.197128060481046141e-02
2.518736965975154271e-02 2.197128060481046141e-02
2.597447496161877853e-02 2.197128060481046141e-02
2.676158026348601435e-02 2.197128060481046141e-02
2.754868556535325017e-02 2.197128060481046141e-02
2.833579086722048598e-02 2.197128060481046141e-02
2.912289616908772180e-02 2.197128060481046141e-02
2.991000147095495762e-02 2.197128060481046141e-02
3.069710677282219344e-02 2.197128060481046141e-02
3.148421207468942579e-02 2.197128060481046141e-02
3.227131737655666160e-02 2.197128060481046141e-02
3.305842267842389742e-02 2.197128060481046141e-02
3.384552798029113324e-02 2.197128060481046141e-02
3.463263328215836906e-02 2.197128060481046141e-02
3.541973858402560488e-02 2.197128060481046141e-02
3.620684388589284070e-02 2.197128060481046141e-02
3.699394918776007651e-02 2.197128060481046141e-02
3.778105448962731233e-02 2.197128060481046141e-02
3.856815979149454815e-02 2.197128060481046141e-02
3.935526509336178397e-02 2.197128060481046141e-02
4.014237039522901979e-02 2.197128060481046141e-02
4.092947569709625560e-02 2.197128060481046141e-02
4.171658099896349142e-02 2.197128060481046141e-02
4.250368630083072724e-02 2.197128060481046141e-02
4.329079160269796306e-02 2.197128060481046141e-02
4.407789690456519888e-02 2.197128060481046141e-02
4.486500220643243469e-02 2.197128060481046141e-02
4.565210750829967051e-02 2.197128060481046141e-02
4.643921281016690633e-02 2.197128060481046141e-02
4.722631811203414215e-02 2.197128060481046141e-02
4.801342341390137797e-02 2.197128060481046141e-02
4.880052871576861379e-02 2.197128060481046141e-02
4.958763401763584960e-02 2.197128060481046141e-02
5.037473931950308542e-02 2.197128060481046141e-02
5.116184462137032124e-02 2.197128060481046141e-02
5.194894992323755706e-02 2.197128060481046141e-02
5.273605522510479288e-02 2.197128060481046141e-02
5.352316052697202869e-02 2.197128060481046141e-02
5.431026582883926451e-02 2.197128060481046141e-02
5.509737113070650033e-02 2.197128060481046141e-02
5.588447643257373615e-02 2.197128060481046141e-02
5.667158173444097197e-02 2.197128060481046141e-02
5.745868703630820779e-02 2.197128060481046141e-02
5.824579233817544360e-02 2.197128060481046141e-02
5.903289764004267942e-02 2.197128060481046141e-02
5.982000294190991524e-02 2.197128060481046141e-02
6.060710824377715106e-02 2.197128060481046141e-02
6.139421354564438688e-02 2.197128060481046141e-02
6.218131884751162269e-02 2.197128060481046141e-02
6.296842414937885157e-02 2.197128060481046141e-02
6.375552945124608739e-02 2.197128060481046141e-02
6.454263475311332321e-02 2.197128060481046141e-02
6.532974005498055903e-02 2.197128060481046141e-02
6.611684535684779485e-02 2.197128060481046141e-02
6.690395065871503066e-02 2.197128060481046141e-02
6.769105596058226648e-02 2.197128060481046141e-02
6.847816126244950230e-02 2.197128060481046141e-02
6.926526656431673812e-02 2.197128060481046141e-02
7.005237186618397394e-02 2.197128060481046141e-02
7.083947716805120975e-02 2.197128060481046141e-02
7.162658246991844557e-02 2.197128060481046141e-02
7.241368777178568139e-02 2.197128060481046141e-02
7.320079307365291721e-02 2.197128060481046141e-02
7.398789837552015303e-02 2.197128060481046141e-02
7.477500367738738885e-02 2.197128060481046141e-02
7.556210897925462466e-02 2.197128060481046141e-02
7.634921428112186048e-02 2.197128060481046141e-02
7.713631958298909630e-02 2.197128060481046141e-02
7.792342488485633212e-02 2.197128060481046141e-02
7.871053018672356794e-02 2.197128060481046141e-02
7.949763548859080375e-02 2.197128060481046141e-02
8.028474079045803957e-02 2.197128060481046141e-02
8.107184609232527539e-02 2.197128060481046141e-02
8.185895139419251121e-02 2.197128060481046141e-02
8.264605669605974703e-02 2.197128060481046141e-02
8.343316199792698284e-02 2.197128060481046141e-02
8.422026729979421866e-02 2.197128060481046141e-02
8.500737260166145448e-02 2.197128060481046141e-02
8.579447790352869030e-02 2.197128060481046141e-02
8.658158320539592612e-02 2.197128060481046141e-02
8.736868850726316194e-02 2.197128060481046141e-02
8.815579380913039775e-02 2.197128060481046141e-02
8.894289911099763357e-02 2.197128060481046141e-02
8.973000441286486939e-02 2.197128060481046141e-02
9.051710971473210521e-02 2.197128060481046141e-02
9.130421501659934103e-02 2.197128060481046141e-02
9.209132031846657684e-02 2.197128060481046141e-02
9.287842562033381266e-02 2.197128060481046141e-02
9.366553092220104848e-02 2.197128060481046141e-02
9.445263622406828430e-02 2.197128060481046141e-02
9.523974152593552012e-02 2.197128060481046141e-02
9.602684682780275593e-02 2.197128060481046141e-02
9.681395212966999175e-02 2.197128060481046141e-02
9.760105743153722757e-02 2.197128060481046141e-02
9.838816273340446339e-02 2.197128060481046141e-02
9.917526803527169921e-02 2.197128060481046141e-02
9.996237333713893503e-02 2.197128060481046141e-02
1.007494786390061708e-01 2.197128060481046141e-02
1.015365839408734067e-01 2.197128060481046141e-02
1.023236892427406425e-01 2.197128060481046141e-02
1.031107945446078783e-01 2.197128060481046141e-02
1.038978998464751141e-01 2.197128060481046141e-02
1.046850051483423499e-01 2.197128060481046141e-02
1.054721104502095858e-01 2.197128060481046141e-02
1.062592157520768216e-01 2.197128060481046141e-02
1.070463210539440574e-01 2.197128060481046141e-02
1.078334263558112932e-01 2.197128060481046141e-02
1.086205316576785290e-01 2.197128060481046141e-02
1.094076369595457648e-01 2.197128060481046141e-02
1.101947422614130007e-01 2.197128060481046141e-02
1.109818475632802365e-01 2.197128060481046141e-02
1.117689528651474723e-01 2.197128060481046141e-02
1.125560581670147081e-01 2.197128060481046141e-02
1.133431634688819439e-01 2.197128060481046141e-02
1.141302687707491798e-01 2.197128060481046141e-02
1.149173740726164156e-01 2.197128060481046141e-02
1.157044793744836514e-01 2.197128060481046141e-02
1.164915846763508872e-01 2.197128060481046141e-02
1.172786899782181230e-01 2.197128060481046141e-02
1.180657952800853588e-01 2.197128060481046141e-02
1.188529005819525947e-01 2.197128060481046141e-02
1.196400058838198305e-01 2.197128060481046141e-02
1.204271111856870663e-01 2.197128060481046141e-02
1.212142164875543021e-01 2.197128060481046141e-02
1.220013217894215379e-01 2.197128060481046141e-02
1.227884270912887738e-01 2.197128060481046141e-02
1.235755323931560096e-01 2.197128060481046141e-02
1.243626376950232454e-01 2.197128060481046141e-02
1.251497429968904673e-01 2.197128060481046141e-02
1.259368482987577031e-01 2.197128060481046141e-02
1.267239536006249390e-01 2.197128060481046141e-02
1.275110589024921748e-01 2.197128060481046141e-02
1.282981642043594106e-01 2.197128060481046141e-02
1.290852695062266464e-01 2.197128060481046141e-02
1.298723748080938822e-01 2.197128060481046141e-02
1.306594801099611181e-01 2.197128060481046141e-02
1.314465854118283539e-01 2.197128060481046141e-02
1.322336907136955897e-01 2.197128060481046141e-02
1.330207960155628255e-01 2.197128060481046141e-02
1.338079013174300613e-01 2.197128060481046141e-02
1.345950066192972971e-01 2.197128060481046141e-02
1.353821119211645330e-01 2.197128060481046141e-02
1.361692172230317688e-01 2.197128060481046141e-02
1.369563225248990046e-01 2.197128060481046141e-02
1.377434278267662404e-01 2.197128060481046141e-02
1.385305331286334762e-01 2.197128060481046141e-02
1.393176384305007121e-01 2.197128060481046141e-02
1.401047437323679479e-01 2.197128060481046141e-02
1.408918490342351837e-01 2.197128060481046141e-02
1.416789543361024195e-01 2.197128060481046141e-02
1.424660596379696553e-01 2.197128060481046141e-02
1.432531649398368911e-01 2.197128060481046141e-02
1.440402702417041270e-01 2.197128060481046141e-02
1.448273755435713628e-01 2.197128060481046141e-02
1.456144808454385986e-01 2.197128060481046141e-02
1.464015861473058344e-01 2.197128060481046141e-02
1.471886914491730702e-01 2.197128060481046141e-02
1.479757967510403061e-01 2.197128060481046141e-02
1.487629020529075419e-01 2.197128060481046141e-02
1.495500073547747777e-01 2.197128060481046141e-02
1.503371126566420135e-01 2.197128060481046141e-02
1.511242179585092493e-01 2.197128060481046141e-02
1.519113232603764851e-01 2.197128060481046141e-02
1.526984285622437210e-01 2.197128060481046141e-02
1.534855338641109568e-01 2.197128060481046141e-02
1.542726391659781926e-01 2.197128060481046141e-02
1.550597444678454284e-01 2.197128060481046141e-02
1.558468497697126642e-01 2.197128060481046141e-02
1.566339550715799001e-01 2.197128060481046141e-02
1.574210603734471359e-01 2.197128060481046141e-02
1.582081656753143717e-01 2.197128060481046141e-02
1.589952709771816075e-01 2.197128060481046141e-02
1.597823762790488433e-01 2.197128060481046141e-02
1.605694815809160791e-01 2.197128060481046141e-02
1.613565868827833150e-01 2.197128060481046141e-02
1.621436921846505508e-01 2.197128060481046141e-02
1.629307974865177866e-01 2.197128060481046141e-02
1.637179027883850224e-01 2.197128060481046141e-02
1.645050080902522582e-01 2.197128060481046141e-02
1.652921133921194941e-01 2.197128060481046141e-02
1.660792186939867299e-01 2.197128060481046141e-02
1.668663239958539657e-01 2.197128060481046141e-02
1.676534292977212015e-01 2.197128060481046141e-02
1.684405345995884373e-01 2.197128060481046141e-02
1.692276399014556731e-01 2.197128060481046141e-02
1.700147452033229090e-01 2.197128060481046141e-02
1.708018505051901448e-01 2.197128060481046141e-02
1.715889558070573806e-01 2.197128060481046141e-02
1.723760611089246164e-01 2.197128060481046141e-02
1.731631664107918522e-01 2.197128060481046141e-02
1.739502717126590881e-01 2.197128060481046141e-02
1.747373770145263239e-01 2.197128060481046141e-02
1.755244823163935597e-01 2.197128060481046141e-02
1.763115876182607955e-01 2.197128060481046141e-02
1.770986929201280313e-01 2.197128060481046141e-02
1.778857982219952671e-01 2.197128060481046141e-02
1.786729035238625030e-01 2.197128060481046141e-02
1.794600088257297388e-01 2.197128060481046141e-02
1.802471141275969746e-01 2.197128060481046141e-02
1.810342194294642104e-01 2.197128060481046141e-02
1.818213247313314462e-01 2.197128060481046141e-02
1.826084300331986821e-01 2.197128060481046141e-02
1.833955353350659179e-01 2.197128060481046141e-02
1.841826406369331537e-01 2.197128060481046141e-02
1.849697459388003895e-01 2.197128060481046141e-02
1.857568512406676253e-01 2.197128060481046141e-02
1.865439565425348611e-01 2.197128060481046141e-02
1.873310618444020970e-01 2.197128060481046141e-02
1.881181671462693328e-01 2.197128060481046141e-02
1.889052724481365686e-01 2.197128060481046141e-02
1.896923777500038044e-01 2.197128060481046141e-02
1.904794830518710402e-01 2.197128060481046141e-02
1.912665883537382761e-01 2.197128060481046141e-02
1.920536936556055119e-01 2.197128060481046141e-02
1.928407989574727477e-01 2.197128060481046141e-02
1.936279042593399835e-01 2.197128060481046141e-02
1.944150095612072193e-01 2.197128060481046141e-02
1.952021148630744551e-01 2.197128060481046141e-02
1.959892201649416910e-01 2.197128060481046141e-02
1.967763254668089268e-01 2.197128060481046141e-02
1.975634307686761626e-01 2.197128060481046141e-02
1.983505360705433984e-01 2.197128060481046141e-02
1.991376413724106342e-01 2.197128060481046141e-02
1.999247466742778701e-01 2.197128060481046141e-02
2.007118519761451059e-01 2.197128060481046141e-02
2.014989572780123417e-01 2.197128060481046141e-02
2.022860625798795775e-01 2.197128060481046141e-02
2.030731678817468133e-01 2.197128060481046141e-02
2.038602731836140491e-01 2.197128060481046141e-02
2.046473784854812850e-01 2.197128060481046141e-02
2.054344837873485208e-01 2.197128060481046141e-02
2.062215890892157566e-01 2.197128060481046141e-02
2.070086943910829924e-01 2.197128060481046141e-02
2.077957996929502282e-01 2.197128060481046141e-02
2.085829049948174641e-01 2.197128060481046141e-02
2.093700102966846999e-01 2.197128060481046141e-02
2.101571155985519357e-01 2.197128060481046141e-02
2.109442209004191715e-01 2.197128060481046141e-02
2.117313262022864073e-01 2.197128060481046141e-02
2.125184315041536431e-01 2.197128060481046141e-02
2.133055368060208790e-01 2.197128060481046141e-02
2.140926421078881148e-01 2.197128060481046141e-02
2.148797474097553506e-01 2.197128060481046141e-02
2.156668527116225864e-01 2.197128060481046141e-02
2.164539580134898222e-01 2.197128060481046141e-02
2.172410633153570581e-01 2.197128060481046141e-02
2.180281686172242939e-01 2.197128060481046141e-02
2.188152739190915297e-01 2.197128060481046141e-02
2.196023792209587655e-01 2.197128060481046141e-02
2.203894845228260013e-01 2.197128060481046141e-02
2.211765898246932371e-01 2.197128060481046141e-02
2.219636951265604730e-01 2.197128060481046141e-02
2.227508004284277088e-01 2.197128060481046141e-02
2.235379057302949446e-01 2.197128060481046141e-02
2.243250110321621804e-01 2.197128060481046141e-02
2.251121163340294162e-01 2.197128060481046141e-02
2.258992216358966520e-01 2.197128060481046141e-02
2.266863269377638879e-01 2.197128060481046141e-02
2.274734322396311237e-01 2.197128060481046141e-02
2.282605375414983595e-01 2.197128060481046141e-02
2.290476428433655953e-01 2.197128060481046141e-02
2.298347481452328311e-01 2.197128060481046141e-02
2.306218534471000670e-01 2.197128060481046141e-02
2.314089587489673028e-01 2.197128060481046141e-02
2.321960640508345386e-01 2.197128060481046141e-02
2.329831693527017744e-01 2.197128060481046141e-02
2.337702746545690102e-01 2.197128060481046141e-02
2.345573799564362460e-01 2.197128060481046141e-02
2.353444852583034819e-01 2.197128060481046141e-02
2.361315905601707177e-01 2.197128060481046141e-02
2.369186958620379535e-01 2.197128060481046141e-02
2.377058011639051893e-01 2.197128060481046141e-02
2.384929064657724251e-01 2.197128060481046141e-02
2.392800117676396610e-01 2.197128060481046141e-02
2.400671170695068968e-01 2.197128060481046141e-02
2.408542223713741326e-01 2.197128060481046141e-02
2.416413276732413684e-01 2.197128060481046141e-02
2.424284329751086042e-01 2.197128060481046141e-02
2.432155382769758400e-01 2.197128060481046141e-02
2.440026435788430759e-01 2.197128060481046141e-02
2.447897488807103117e-01 2.197128060481046141e-02
2.455768541825775475e-01 2.197128060481046141e-02
2.463639594844447833e-01 2.197128060481046141e-02
2.471510647863120191e-01 2.197128060481046141e-02
2.479381700881792550e-01 2.197128060481046141e-02
2.487252753900464908e-01 2.197128060481046141e-02
2.495123806919137266e-01 2.197128060481046141e-02
2.502994859937809347e-01 2.197128060481046141e-02
2.510865912956481982e-01 2.197128060481046141e-02
2.518736965975154063e-01 2.197128060481046141e-02
2.526608018993826699e-01 2.197128060481046141e-02
2.534479072012498779e-01 2.197128060481046141e-02
2.542350125031171415e-01 2.197128060481046141e-02
2.550221178049843496e-01 2.197128060481046141e-02
2.558092231068516131e-01 2.197128060481046141e-02
2.565963284087188212e-01 2.197128060481046141e-02
2.573834337105860848e-01 2.197128060481068346e-02
2.581705390124532928e-01 2.197128060481090550e-02
2.589576443143205564e-01 2.197128060481201572e-02
2.597447496161877645e-01 2.197128060481334799e-02
2.605318549180550280e-01 2.197128060482111955e-02
2.613189602199222361e-01 2.197128060482977929e-02
2.621060655217894997e-01 2.197128060487552048e-02
2.628931708236567077e-01 2.197128060492614665e-02
2.636802761255239713e-01 2.197128060516440051e-02
2.644673814273911794e-01 2.197128060543107608e-02
2.652544867292584430e-01 2.197128060653130710e-02
2.660415920311256510e-01 2.197128060778297254e-02
2.668286973329929146e-01 2.197128061231246043e-02
2.676158026348601227e-01 2.197128061757647188e-02
2.684029079367273862e-01 2.197128063423514632e-02
2.691900132385945943e-01 2.197128065412212727e-02
2.699771185404618579e-01 2.197128070905574049e-02
2.707642238423290659e-01 2.197128077679177949e-02
2.715513291441963295e-01 2.197128094004030530e-02
2.723384344460635376e-01 2.197128114907376251e-02
2.731255397479308011e-01 2.197128158984806845e-02
2.739126450497980092e-01 2.197128217830957020e-02
2.746997503516652728e-01 2.197128327356989708e-02
2.754868556535324808e-01 2.197128479937049406e-02
2.762739609553997444e-01 2.197128735092190865e-02
2.770610662572669525e-01 2.197129104211525963e-02
2.778481715591342160e-01 2.197129674303099911e-02
2.786352768610014241e-01 2.197130520646228824e-02
2.794223821628686877e-01 2.197131768330562451e-02
2.802094874647358957e-01 2.197133637534132156e-02
2.809965927666031593e-01 2.197136343968475458e-02
2.817836980684703674e-01 2.197140372040107259e-02
2.825708033703376310e-01 2.197146189005216854e-02
2.833579086722048390e-01 2.197154715964866334e-02
2.841450139740721026e-01 2.197167018907486558e-02
2.849321192759393107e-01 2.197184766074578022e-02
2.857192245778065742e-01 2.197210223571022247e-02
2.865063298796737823e-01 2.197246469657598844e-02
2.872934351815410459e-01 2.197297932486041994e-02
2.880805404834082539e-01 2.197370447023061502e-02
2.888676457852755175e-01 2.197472219510721025e-02
2.896547510871427256e-01 2.197614246230439328e-02
2.904418563890099891e-01 2.197811398857174581e-02
2.912289616908771972e-01 2.198083757042779141e-02
2.920160669927444608e-01 2.198457913571294498e-02
2.928031722946116688e-01 2.198969324104149692e-02
2.935902775964789324e-01 2.199664594520389649e-02
2.943773828983461405e-01 2.200604743207468239e-02
2.951644882002134040e-01 2.201869325822713996e-02
2.959515935020806121e-01 2.203561077914617528e-02
2.967386988039478757e-01 2.205812207247492829e-02
2.975258041058150837e-01 2.208791559291189976e-02
2.983129094076823473e-01 2.212713345852446167e-02
2.991000147095495554e-01 2.217847749878898433e-02
2.998871200114168190e-01 2.224533015901974942e-02
3.006742253132840270e-01 2.233189901799836896e-02
3.014613306151512906e-01 2.244338248300481453e-02
3.022484359170184987e-01 2.258615648106965246e-02
3.030355412188857622e-01 2.276798788367528914e-02
3.038226465207529703e-01 2.299826947120475751e-02
3.046097518226202339e-01 2.328827229023699985e-02
3.053968571244874419e-01 2.365142522742313957e-02
3.061839624263547055e-01 2.410359313395837866e-02
3.069710677282219136e-01 2.466338055618688685e-02
3.077581730300891771e-01 2.535241485246486626e-02
3.085452783319563852e-01 2.619562125778118755e-02
3.093323836338236488e-01 2.722146670567338056e-02
3.101194889356908568e-01 2.846218078177531474e-02
3.109065942375581204e-01 2.995386459014270919e-02
3.116936995394253285e-01 3.173654872940190330e-02
3.124808048412925920e-01 3.385413660495961707e-02
3.132679101431598001e-01 3.635418927307032533e-02
3.140550154450270637e-01 3.928755052840449125e-02
3.148421207468942717e-01 4.270787021126287719e-02
3.156292260487615353e-01 4.667084149912370528e-02
3.164163313506287434e-01 5.123303365350051486e-02
3.172034366524960070e-01 5.645103139621321375e-02
3.179905419543632150e-01 6.237961574665606967e-02
3.187776472562304786e-01 6.907032105985644321e-02
3.195647525580976867e-01 7.656960040343574470e-02
3.203518578599649502e-01 8.491618699863257014e-02
3.211389631618321583e-01 9.413955849652277941e-02
3.219260684636994219e-01 1.042573190327833466e-01
3.227131737655666299e-01 1.152722926900702216e-01
3.235002790674338935e-01 1.271709568536238955e-01
3.242873843693011016e-01 1.399210510171975397e-01
3.250744896711683651e-01 1.534695154088545621e-01
3.258615949730355732e-01 1.677406563679311180e-01
3.266487002749028368e-01 1.826351156579346657e-01
3.274358055767700448e-01 1.980302827413835676e-01
3.282229108786373084e-01 2.137784395430279982e-01
3.290100161805045165e-01 2.297092340988893255e-01
3.297971214823717800e-01 2.456301340585851367e-01
3.305842267842389881e-01 2.613300547039238975e-01
3.313713320861062517e-01 2.765809255932965005e-01
3.321584373879734597e-01 2.911424729498230946e-01
3.329455426898407233e-01 3.047679090541490776e-01
3.337326479917079314e-01 3.172072304431656775e-01
3.345197532935751950e-01 3.282144739471983819e-01
3.353068585954424030e-01 3.375546429073226218e-01
3.360939638973096666e-01 3.450060983694365202e-01
3.368810691991768747e-01 3.503729273294682312e-01
3.376681745010441382e-01 3.534860971029281096e-01
3.384552798029113463e-01 3.542093920826079323e-01
3.392423851047786099e-01 3.524473294155130443e-01
3.400294904066458179e-01 3.481459835525426705e-01
3.408165957085130815e-01 3.412962844472120505e-01
3.416037010103802896e-01 3.319359964748851421e-01
3.423908063122475531e-01 3.201518622619443644e-01
3.431779116141147612e-01 3.060751501175147382e-01
3.439650169159820248e-01 2.898811593036578760e-01
3.447521222178492328e-01 2.717869112962647549e-01
3.455392275197164964e-01 2.520438112929004326e-01
3.463263328215837045e-01 2.309354219286678944e-01
3.471134381234509680e-01 2.087695475992741301e-01
3.479005434253181761e-01 1.858708959688755158e-01
3.486876487271854397e-01 1.625754710322504515e-01
3.494747540290526477e-01 1.392193180116612083e-01
3.502618593309199113e-01 1.161341120160634954e-01
3.510489646327871194e-01 9.363676871513382238e-02
3.518360699346543830e-01 7.202880531326627533e-02
3.526231752365215910e-01 5.158324051652440900e-02
3.534102805383888546e-01 3.254743407560400925e-02
3.541973858402560627e-01 1.513450631572066385e-02
3.549844911421233262e-01 -4.791458193021957968e-04
3.557715964439905343e-01 -1.415471454419880981e-02
3.565587017458577979e-01 -2.579813935417307746e-02
3.573458070477250059e-01 -3.535112458681810566e-02
3.581329123495922695e-01 -4.278856270436459663e-02
3.589200176514594776e-01 -4.812327545434336162e-02
3.597071229533267411e-01 -5.140514809242080485e-02
3.604942282551939492e-01 -5.271280143062673229e-02
3.612813335570612128e-01 -5.214716034984656634e-02
3.620684388589284208e-01 -4.983759669494103317e-02
3.628555441607956844e-01 -4.592741720037019082e-02
3.636426494626628925e-01 -4.057213193586450828e-02
3.644297547645301560e-01 -3.393978412629727881e-02
3.652168600663973641e-01 -2.620616776353756894e-02
3.660039653682646277e-01 -1.754823120900750322e-02
3.667910706701318357e-01 -8.139542170438995861e-03
3.675781759719990993e-01 1.848640383540933740e-03
3.683652812738663074e-01 1.225363280098212826e-02
3.691523865757335710e-01 2.291951273731362981e-02
3.699394918776007790e-01 3.370355064285202040e-02
3.707265971794680426e-01 4.446996379897072416e-02
3.715137024813352506e-01 5.509634780560945799e-02
3.723008077832025142e-01 6.547597501350610472e-02
3.730879130850697223e-01 7.550983761978224962e-02
3.738750183869369859e-01 8.511325566061600512e-02
3.746621236888041939e-01 9.421662554774834497e-02
3.754492289906714575e-01 1.027616116796472578e-01
3.762363342925386656e-01 1.107038288046866548e-01
3.770234395944059291e-01 1.180032836866473644e-01
3.778105448962731372e-01 1.246344565129200443e-01
3.785976501981404008e-01 1.305808614433312531e-01
3.793847555000076088e-01 1.358316350358415026e-01
3.801718608018748724e-01 1.403814589450118611e-01
3.809589661037420805e-01 1.442335695283378794e-01
3.817460714056093440e-01 1.473938210885505917e-01
3.825331767074765521e-01 1.498767875412521100e-01
3.833202820093438157e-01 1.517006914343799195e-01
3.841073873112110237e-01 1.528870947420775117e-01
3.848944926130782873e-01 1.534591673103651299e-01
3.856815979149454954e-01 1.534396667104227507e-01
3.864687032168127589e-01 1.528569162237736201e-01
3.872558085186799670e-01 1.517427434680822529e-01
3.880429138205472306e-01 1.501308312977949200e-01
3.888300191224144386e-01 1.480487608997222981e-01
3.896171244242817022e-01 1.455280300716566000e-01
3.904042297261489103e-01 1.426061558240583338e-01
3.911913350280161739e-01 1.393165324189846732e-01
3.919784403298833819e-01 1.356890497823519670e-01
3.927655456317506455e-01 1.317578854984138292e-01
3.935526509336178536e-01 1.275533417679268755e-01
3.943397562354851171e-01 1.231043602846741969e-01
3.951268615373523252e-01 1.184362959513292068e-01
3.959139668392195888e-01 1.135743387606291677e-01
3.967010721410867968e-01 1.085461111268690715e-01
3.974881774429540604e-01 1.033645997075156586e-01
3.982752827448212685e-01 9.804477007926881704e-02
3.990623880466885320e-01 9.259478528396503094e-02
3.998494933485557401e-01 8.702202504124390003e-02
4.006365986504230037e-01 8.132826213291877160e-02
4.014237039522902117e-01 7.550158181610688857e-02
4.022108092541574753e-01 6.953487234981481357e-02
4.029979145560246834e-01 6.340749937828960014e-02
4.037850198578918914e-01 5.708889272212869237e-02
4.045721251597591550e-01 5.054689494379549508e-02
4.053592304616263631e-01 4.373673299564173611e-02
4.061463357634936266e-01 3.660182215584772969e-02
4.069334410653608347e-01 2.908842239899112059e-02
4.077205463672280983e-01 2.111329543483120297e-02
4.085076516690953063e-01 1.259763492766063919e-02
4.092947569709625699e-01 3.436774602418646296e-03
4.100818622728297780e-01 -6.473928625495450895e-03
4.108689675746970416e-01 -1.724805518620309286e-02
4.116560728765642496e-01 -2.901907905922507247e-02
4.124431781784315132e-01 -4.192629502948264086e-02
4.132302834802987213e-01 -5.611889763149757737e-02
4.140173887821659848e-01 -7.174986015637419001e-02
4.148044940840331929e-01 -8.897663036559211314e-02
4.155915993859004565e-01 -1.079580422947811202e-01
4.163787046877676645e-01 -1.288409585488980991e-01
4.171658099896349281e-01 -1.517654185842943759e-01
4.179529152915021362e-01 -1.768663599561735023e-01
4.187400205933693997e-01 -2.042499022084078852e-01
4.195271258952366078e-01 -2.339933056460544725e-01
4.203142311971038714e-01 -2.661422915488934615e-01
4.211013364989710794e-01 -3.006964476420846966e-01
4.218884418008383430e-01 -3.376167314982595480e-01
4.226755471027055511e-01 -3.768050217054458306e-01
4.234626524045728146e-01 -4.181039117296480034e-01
4.242497577064400227e-01 -4.612947309956140218e-01
4.250368630083072863e-01 -5.060883099304145372e-01
4.258239683101744943e-01 -5.521392446729143089e-01
4.266110736120417579e-01 -5.990266026112498476e-01
4.273981789139089660e-01 -6.462756080394254088e-01
4.281852842157762296e-01 -6.933522825843894122e-01
4.289723895176434376e-01 -7.396703714233507920e-01
4.297594948195107012e-01 -7.846076693674516322e-01
4.305466001213779093e-01 -8.275127821691461438e-01
4.313337054232451728e-01 -8.677201333263850902e-01
4.321208107251123809e-01 -9.045702480047547178e-01
