0.000000000000000000e+00 -5.414173333921923348e-02
7.868847933080908323e-04 8.605920108700737536e-02
1.573769586616181665e-03 8.605920108700737536e-02
2.360654379924272388e-03 8.605920108700737536e-02
3.147539173232363329e-03 8.605920108700737536e-02
3.934423966540453836e-03 8.605920108700737536e-02
4.721308759848544777e-03 8.605920108700737536e-02
5.508193553156635718e-03 8.605920108700737536e-02
6.295078346464726658e-03 8.605920108700737536e-02
7.081963139772817599e-03 8.605920108700737536e-02
7.868847933080907672e-03 8.605920108700737536e-02
8.655732726388998613e-03 8.605920108700737536e-02
9.442617519697089554e-03 8.605920108700737536e-02
1.022950231300518049e-02 8.605920108700737536e-02
1.101638710631327144e-02 8.605920108700737536e-02
1.180327189962136238e-02 8.605920108700737536e-02
1.259015669292945332e-02 8.605920108700737536e-02
1.337704148623754426e-02 8.605920108700737536e-02
1.416392627954563520e-02 8.605920108700737536e-02
1.495081107285372614e-02 8.605920108700737536e-02
1.573769586616181534e-02 8.605920108700737536e-02
1.652458065946990629e-02 8.605920108700737536e-02
1.731146545277799723e-02 8.605920108700737536e-02
1.809835024608608817e-02 8.605920108700737536e-02
1.888523503939417911e-02 8.605920108700737536e-02
1.967211983270227005e-02 8.605920108700737536e-02
2.045900462601036099e-02 8.605920108700737536e-02
2.124588941931845193e-02 8.605920108700737536e-02
2.203277421262654287e-02 8.605920108700737536e-02
2.281965900593463381e-02 8.605920108700737536e-02
2.360654379924272475e-02 8.605920108700737536e-02
2.439342859255081569e-02 8.605920108700737536e-02
2.518031338585890663e-02 8.605920108700737536e-02
2.596719817916699757e-02 8.605920108700737536e-02
2.675408297247508851e-02 8.605920108700737536e-02
2.754096776578317946e-02 8.605920108700737536e-02
2.832785255909127040e-02 8.605920108700737536e-02
2.911473735239936134e-02 8.605920108700737536e-02
2.990162214570745228e-02 8.605920108700737536e-02
3.068850693901554322e-02 8.605920108700737536e-02
3.147539173232363069e-02 8.605920108700737536e-02
3.226227652563172510e-02 8.605920108700737536e-02
3.304916131893981257e-02 8.605920108700737536e-02
3.383604611224790698e-02 8.605920108700737536e-02
3.462293090555599445e-02 8.605920108700737536e-02
3.540981569886408886e-02 8.605920108700737536e-02
3.619670049217217633e-02 8.605920108700737536e-02
3.698358528548027074e-02 8.605920108700737536e-02
3.777047007878835821e-02 8.605920108700737536e-02
3.855735487209645262e-02 8.605920108700737536e-02
3.934423966540454010e-02 8.605920108700737536e-02
4.013112445871263451e-02 8.605920108700737536e-02
4.091800925202072198e-02 8.605920108700737536e-02
4.170489404532881639e-02 8.605920108700737536e-02
4.249177883863690386e-02 8.605920108700737536e-02
4.327866363194499827e-02 8.605920108700737536e-02
4.406554842525308574e-02 8.605920108700737536e-02
4.485243321856118015e-02 8.605920108700737536e-02
4.563931801186926762e-02 8.605920108700737536e-02
4.642620280517736203e-02 8.605920108700737536e-02
4.721308759848544950e-02 8.605920108700737536e-02
4.799997239179354391e-02 8.605920108700737536e-02
4.878685718510163138e-02 8.605920108700737536e-02
4.957374197840972579e-02 8.605920108700737536e-02
5.036062677171781327e-02 8.605920108700737536e-02
5.114751156502590074e-02 8.605920108700737536e-02
5.193439635833399515e-02 8.605920108700737536e-02
5.272128115164208262e-02 8.605920108700737536e-02
5.350816594495017703e-02 8.605920108700737536e-02
5.429505073825826450e-02 8.605920108700737536e-02
5.508193553156635891e-02 8.605920108700737536e-02
5.586882032487444638e-02 8.605920108700737536e-02
5.665570511818254079e-02 8.605920108700737536e-02
5.744258991149062826e-02 8.605920108700737536e-02
5.822947470479872267e-02 8.605920108700737536e-02
5.901635949810681014e-02 8.605920108700737536e-02
5.980324429141490455e-02 8.605920108700737536e-02
6.059012908472299203e-02 8.605920108700737536e-02
6.137701387803108644e-02 8.605920108700737536e-02
6.216389867133917391e-02 8.605920108700737536e-02
6.295078346464726138e-02 8.605920108700737536e-02
6.373766825795536273e-02 8.605920108700737536e-02
6.452455305126345020e-02 8.605920108700737536e-02
6.531143784457153767e-02 8.605920108700737536e-02
6.609832263787962514e-02 8.605920108700737536e-02
6.688520743118772649e-02 8.605920108700737536e-02
6.767209222449581396e-02 8.605920108700737536e-02
6.845897701780390143e-02 8.605920108700737536e-02
6.924586181111198890e-02 8.605920108700737536e-02
7.003274660442009025e-02 8.605920108700737536e-02
7.081963139772817772e-02 8.605920108700737536e-02
7.160651619103626520e-02 8.605920108700737536e-02
7.239340098434435267e-02 8.605920108700737536e-02
7.318028577765245402e-02 8.605920108700737536e-02
7.396717057096054149e-02 8.605920108700737536e-02
7.475405536426862896e-02 8.605920108700737536e-02
7.554094015757671643e-02 8.605920108700737536e-02
7.632782495088480390e-02 8.605920108700737536e-02
7.711470974419290525e-02 8.605920108700737536e-02
7.790159453750099272e-02 8.605920108700737536e-02
7.868847933080908019e-02 8.605920108700737536e-02
7.947536412411716766e-02 8.605920108700737536e-02
8.026224891742526901e-02 8.605920108700737536e-02
8.104913371073335648e-02 8.605920108700737536e-02
8.183601850404144396e-02 8.605920108700737536e-02
8.262290329734953143e-02 8.605920108700737536e-02
8.340978809065763278e-02 8.605920108700737536e-02
8.419667288396572025e-02 8.605920108700737536e-02
8.498355767727380772e-02 8.605920108700737536e-02
8.577044247058189519e-02 8.605920108700737536e-02
8.655732726388999654e-02 8.605920108700737536e-02
8.734421205719808401e-02 8.605920108700737536e-02
8.813109685050617148e-02 8.605920108700737536e-02
8.891798164381425895e-02 8.605920108700737536e-02
8.970486643712236030e-02 8.605920108700737536e-02
9.049175123043044777e-02 8.605920108700737536e-02
9.127863602373853524e-02 8.605920108700737536e-02
9.206552081704662271e-02 8.605920108700737536e-02
9.285240561035472406e-02 8.605920108700737536e-02
9.363929040366281153e-02 8.605920108700737536e-02
9.442617519697089901e-02 8.605920108700737536e-02
9.521305999027898648e-02 8.605920108700737536e-02
9.599994478358708783e-02 8.605920108700737536e-02
9.678682957689517530e-02 8.605920108700737536e-02
9.757371437020326277e-02 8.605920108700737536e-02
9.836059916351135024e-02 8.605920108700737536e-02
9.914748395681945159e-02 8.605920108700737536e-02
9.993436875012753906e-02 8.605920108700737536e-02
1.007212535434356265e-01 8.605920108700737536e-02
1.015081383367437140e-01 8.605920108700737536e-02
1.022950231300518015e-01 8.605920108700737536e-02
1.030819079233599028e-01 8.605920108700737536e-02
1.038687927166679903e-01 8.605920108700737536e-02
1.046556775099760778e-01 8.605920108700737536e-02
1.054425623032841652e-01 8.605920108700737536e-02
1.062294470965922666e-01 8.605920108700737536e-02
1.070163318899003541e-01 8.605920108700737536e-02
1.078032166832084415e-01 8.605920108700737536e-02
1.085901014765165290e-01 8.605920108700737536e-02
1.093769862698246303e-01 8.605920108700737536e-02
1.101638710631327178e-01 8.605920108700737536e-02
1.109507558564408053e-01 8.605920108700737536e-02
1.117376406497488928e-01 8.605920108700737536e-02
1.125245254430569941e-01 8.605920108700737536e-02
1.133114102363650816e-01 8.605920108700737536e-02
1.140982950296731691e-01 8.605920108700737536e-02
1.148851798229812565e-01 8.605920108700737536e-02
1.156720646162893579e-01 8.605920108700737536e-02
1.164589494095974453e-01 8.605920108700737536e-02
1.172458342029055328e-01 8.605920108700737536e-02
1.180327189962136203e-01 8.605920108700737536e-02
1.188196037895217216e-01 8.605920108700737536e-02
1.196064885828298091e-01 8.605920108700737536e-02
1.203933733761378966e-01 8.605920108700737536e-02
1.211802581694459841e-01 8.605920108700737536e-02
1.219671429627540854e-01 8.605920108700737536e-02
1.227540277560621729e-01 8.605920108700737536e-02
1.235409125493702603e-01 8.605920108700737536e-02
1.243277973426783478e-01 8.605920108700737536e-02
1.251146821359864492e-01 8.605920108700737536e-02
1.259015669292945228e-01 8.605920108700737536e-02
1.266884517226026241e-01 8.605920108700737536e-02
1.274753365159107255e-01 8.605920108700737536e-02
1.282622213092187990e-01 8.605920108700737536e-02
1.290491061025269004e-01 8.605920108700737536e-02
1.298359908958349740e-01 8.605920108700737536e-02
1.306228756891430753e-01 8.605920108700737536e-02
1.314097604824511767e-01 8.605920108700737536e-02
1.321966452757592503e-01 8.605920108700737536e-02
1.329835300690673516e-01 8.605920108700737536e-02
1.337704148623754530e-01 8.605920108700737536e-02
1.345572996556835266e-01 8.605920108700737536e-02
1.353441844489916279e-01 8.605920108700737536e-02
1.361310692422997015e-01 8.605920108700737536e-02
1.369179540356078029e-01 8.605920108700737536e-02
1.377048388289159042e-01 8.605920108700737536e-02
1.384917236222239778e-01 8.605920108700737536e-02
1.392786084155320792e-01 8.605920108700737536e-02
1.400654932088401805e-01 8.605920108700737536e-02
1.408523780021482541e-01 8.605920108700737536e-02
1.416392627954563554e-01 8.605920108700737536e-02
1.424261475887644290e-01 8.605920108700737536e-02
1.432130323820725304e-01 8.605920108700737536e-02
1.439999171753806317e-01 8.605920108700737536e-02
1.447868019686887053e-01 8.605920108700737536e-02
1.455736867619968067e-01 8.605920108700737536e-02
1.463605715553049080e-01 8.605920108700737536e-02
1.471474563486129816e-01 8.605920108700737536e-02
1.479343411419210830e-01 8.605920108700737536e-02
1.487212259352291566e-01 8.605920108700737536e-02
1.495081107285372579e-01 8.605920108700737536e-02
1.502949955218453593e-01 8.605920108700737536e-02
1.510818803151534329e-01 8.605920108700737536e-02
1.518687651084615342e-01 8.605920108700737536e-02
1.526556499017696078e-01 8.605920108700737536e-02
1.534425346950777092e-01 8.605920108700737536e-02
1.542294194883858105e-01 8.605920108700737536e-02
1.550163042816938841e-01 8.605920108700737536e-02
1.558031890750019854e-01 8.605920108700737536e-02
1.565900738683100868e-01 8.605920108700737536e-02
1.573769586616181604e-01 8.605920108700737536e-02
1.581638434549262617e-01 8.605920108700737536e-02
1.589507282482343353e-01 8.605920108700737536e-02
1.597376130415424367e-01 8.605920108700737536e-02
1.605244978348505380e-01 8.605920108700737536e-02
1.613113826281586116e-01 8.605920108700737536e-02
1.620982674214667130e-01 8.605920108700737536e-02
1.628851522147748143e-01 8.605920108700737536e-02
1.636720370080828879e-01 8.605920108700737536e-02
1.644589218013909893e-01 8.605920108700737536e-02
1.652458065946990629e-01 8.605920108700737536e-02
1.660326913880071642e-01 8.605920108700737536e-02
1.668195761813152656e-01 8.605920108700737536e-02
1.676064609746233391e-01 8.605920108700737536e-02
1.683933457679314405e-01 8.605920108700737536e-02
1.691802305612395418e-01 8.605920108700737536e-02
1.699671153545476154e-01 8.605920108700737536e-02
1.707540001478557168e-01 8.605920108700737536e-02
1.715408849411637904e-01 8.605920108700737536e-02
1.723277697344718917e-01 8.605920108700737536e-02
1.731146545277799931e-01 8.605920108700737536e-02
1.739015393210880667e-01 8.605920108700737536e-02
1.746884241143961680e-01 8.605920108700737536e-02
1.754753089077042694e-01 8.605920108700737536e-02
1.762621937010123430e-01 8.605920108700737536e-02
1.770490784943204443e-01 8.605920108700737536e-02
1.778359632876285179e-01 8.605920108700737536e-02
1.786228480809366193e-01 8.605920108700737536e-02
1.794097328742447206e-01 8.605920108700737536e-02
1.801966176675527942e-01 8.605920108700737536e-02
1.809835024608608955e-01 8.605920108700737536e-02
1.817703872541689691e-01 8.605920108700737536e-02
1.825572720474770705e-01 8.605920108700737536e-02
1.833441568407851718e-01 8.605920108700737536e-02
1.841310416340932454e-01 8.605920108700737536e-02
1.849179264274013468e-01 8.605920108700737536e-02
1.857048112207094481e-01 8.605920108700737536e-02
1.864916960140175217e-01 8.605920108700737536e-02
1.872785808073256231e-01 8.605920108700737536e-02
1.880654656006336967e-01 8.605920108700737536e-02
1.888523503939417980e-01 8.605920108700737536e-02
1.896392351872498994e-01 8.605920108700737536e-02
1.904261199805579730e-01 8.605920108700737536e-02
1.912130047738660743e-01 8.605920108700737536e-02
1.919998895671741757e-01 8.605920108700737536e-02
1.927867743604822492e-01 8.605920108700737536e-02
1.935736591537903506e-01 8.605920108700737536e-02
1.943605439470984242e-01 8.605920108700737536e-02
1.951474287404065255e-01 8.605920108700737536e-02
1.959343135337146269e-01 8.605920108700737536e-02
1.967211983270227005e-01 8.605920108700737536e-02
1.975080831203308018e-01 8.605920108700737536e-02
1.982949679136389032e-01 8.605920108700737536e-02
1.990818527069469768e-01 8.605920108700737536e-02
1.998687375002550781e-01 8.605920108700737536e-02
2.006556222935631517e-01 8.605920108700737536e-02
2.014425070868712531e-01 8.605920108700737536e-02
2.022293918801793544e-01 8.605920108700737536e-02
2.030162766734874280e-01 8.605920108700737536e-02
2.038031614667955294e-01 8.605920108700737536e-02
2.045900462601036029e-01 8.605920108700737536e-02
2.053769310534117043e-01 8.605920108700737536e-02
2.061638158467198056e-01 8.605920108700737536e-02
2.069507006400278792e-01 8.605920108700737536e-02
2.077375854333359806e-01 8.605920108700737536e-02
2.085244702266440819e-01 8.605920108700737536e-02
2.093113550199521555e-01 8.605920108700737536e-02
2.100982398132602569e-01 8.605920108700737536e-02
2.108851246065683305e-01 8.605920108700737536e-02
2.116720093998764318e-01 8.605920108700737536e-02
2.124588941931845332e-01 8.605920108700737536e-02
2.132457789864926068e-01 8.605920108700737536e-02
2.140326637798007081e-01 8.605920108700737536e-02
2.148195485731088095e-01 8.605920108700737536e-02
2.156064333664168831e-01 8.605920108700737536e-02
2.163933181597249844e-01 8.605920108700737536e-02
2.171802029530330580e-01 8.605920108700737536e-02
2.179670877463411593e-01 8.605920108700737536e-02
2.187539725396492607e-01 8.605920108700737536e-02
2.195408573329573343e-01 8.605920108700737536e-02
2.203277421262654356e-01 8.605920108700737536e-02
2.211146269195735370e-01 8.605920108700737536e-02
2.219015117128816106e-01 8.605920108700737536e-02
2.226883965061897119e-01 8.605920108700737536e-02
2.234752812994977855e-01 8.605920108700737536e-02
2.242621660928058869e-01 8.605920108700737536e-02
2.250490508861139882e-01 8.605920108700737536e-02
2.258359356794220618e-01 8.605920108700737536e-02
2.266228204727301632e-01 8.605920108700737536e-02
2.274097052660382368e-01 8.605920108700737536e-02
2.281965900593463381e-01 8.605920108700737536e-02
2.289834748526544395e-01 8.605920108700737536e-02
2.297703596459625131e-01 8.605920108700737536e-02
2.305572444392706144e-01 8.605920108700737536e-02
2.313441292325787157e-01 8.605920108700737536e-02
2.321310140258867893e-01 8.605920108700737536e-02
2.329178988191948907e-01 8.605920108700737536e-02
2.337047836125029643e-01 8.605920108700737536e-02
2.344916684058110656e-01 8.605920108700737536e-02
2.352785531991191670e-01 8.605920108700737536e-02
2.360654379924272406e-01 8.605920108700737536e-02
2.368523227857353419e-01 8.605920108700737536e-02
2.376392075790434433e-01 8.605920108700737536e-02
2.384260923723515169e-01 8.605920108700737536e-02
2.392129771656596182e-01 8.605920108700737536e-02
2.399998619589676918e-01 8.605920108700737536e-02
2.407867467522757932e-01 8.605920108700737536e-02
2.415736315455838945e-01 8.605920108700737536e-02
2.423605163388919681e-01 8.605920108700737536e-02
2.431474011322000695e-01 8.605920108700737536e-02
2.439342859255081708e-01 8.605920108700737536e-02
2.447211707188162444e-01 8.605920108700737536e-02
2.455080555121243457e-01 8.605920108700737536e-02
2.462949403054324193e-01 8.605920108700737536e-02
2.470818250987405207e-01 8.605920108700737536e-02
2.478687098920486220e-01 8.605920108700737536e-02
2.486555946853566956e-01 8.605920108700737536e-02
2.494424794786647970e-01 8.605920108700737536e-02
2.502293642719728983e-01 8.605920108700737536e-02
2.510162490652809719e-01 8.605920108700737536e-02
2.518031338585890455e-01 8.605920108700737536e-02
2.525900186518971746e-01 8.605920108700737536e-02
2.533769034452052482e-01 8.605920108700737536e-02
2.541637882385133218e-01 8.605920108700737536e-02
2.549506730318214509e-01 8.605920108700737536e-02
2.557375578251295245e-01 8.605920108700737536e-02
2.565244426184375981e-01 8.605920108700737536e-02
2.573113274117457272e-01 8.605920108700781945e-02
2.580982122050538008e-01 8.605920108700892968e-02
2.588850969983618744e-01 8.605920108701070603e-02
2.596719817916699480e-01 8.605920108701581306e-02
2.604588665849780771e-01 8.605920108702536098e-02
2.612457513782861507e-01 8.605920108705111815e-02
2.620326361715942243e-01 8.605920108709708138e-02
2.628195209649023534e-01 8.605920108721254458e-02
2.636064057582104270e-01 8.605920108741327290e-02
2.643932905515185006e-01 8.605920108788578382e-02
2.651801753448266297e-01 8.605920108868736484e-02
2.659670601381347033e-01 8.605920109045506194e-02
2.667539449314427769e-01 8.605920109338849322e-02
2.675408297247509060e-01 8.605920109945364160e-02
2.683277145180589796e-01 8.605920110932152589e-02
2.691145993113670531e-01 8.605920112849063663e-02
2.699014841046751823e-01 8.605920115915188795e-02
2.706883688979832558e-01 8.605920121529964106e-02
2.714752536912913294e-01 8.605920130384459021e-02
2.722621384845994030e-01 8.605920145750944883e-02
2.730490232779075321e-01 8.605920169708758394e-02
2.738359080712156057e-01 8.605920209404160914e-02
2.746227928645236793e-01 8.605920270732481114e-02
2.754096776578318084e-01 8.605920368635566753e-02
2.761965624511398820e-01 8.605920518738807701e-02
2.769834472444479556e-01 8.605920751843032512e-02
2.777703320377560847e-01 8.605921106604075277e-02
2.785572168310641583e-01 8.605921647059400215e-02
2.793441016243722319e-01 8.605922462910897686e-02
2.801309864176803610e-01 8.605923689091277140e-02
2.809178712109884346e-01 8.605925522848645315e-02
2.817047560042965082e-01 8.605928249028238497e-02
2.824916407976045818e-01 8.605932283825912243e-02
2.832785255909127109e-01 8.605938220469888655e-02
2.840654103842207845e-01 8.605946911138273592e-02
2.848522951775288581e-01 8.605959563021503556e-02
2.856391799708369872e-01 8.605977880739978936e-02
2.864260647641450608e-01 8.606004258644817106e-02
2.872129495574531344e-01 8.606042033604688335e-02
2.879998343507612635e-01 8.606095838555294364e-02
2.887867191440693371e-01 8.606172059370442717e-02
2.895736039373774107e-01 8.606279450862919234e-02
2.903604887306855398e-01 8.606429945313975871e-02
2.911473735239936134e-01 8.606639701037965828e-02
2.919342583173016870e-01 8.606930478900420844e-02
2.927211431106098161e-01 8.607331395474648872e-02
2.935080279039178897e-01 8.607881184095100835e-02
2.942949126972259632e-01 8.608631056547810800e-02
2.950817974905340368e-01 8.609648308499817659e-02
2.958686822838421659e-01 8.611020836016014535e-02
2.966555670771502395e-01 8.612862745883820281e-02
2.974424518704583131e-01 8.615321239741136061e-02
2.982293366637664422e-01 8.618585079733076526e-02
2.990162214570745158e-01 8.622894780615597554e-02
2.998031062503825894e-01 8.628554941681332302e-02
3.005899910436907185e-01 8.635948838131612959e-02
3.013768758369987921e-01 8.645555853805531044e-02
3.021637606303068657e-01 8.657971646262629939e-02
3.029506454236149948e-01 8.673931896123221463e-02
3.037375302169230684e-01 8.694339035836962104e-02
3.045244150102311420e-01 8.720293667277312366e-02
3.053112998035392156e-01 8.753128713925928395e-02
3.060981845968473447e-01 8.794448429580459248e-02
3.068850693901554183e-01 8.846171373670808080e-02
3.076719541834634919e-01 8.910575944523513314e-02
3.084588389767716210e-01 8.990351082185332743e-02
3.092457237700796946e-01 9.088647981904762752e-02
3.100326085633877682e-01 9.209135564040726862e-02
3.108194933566958973e-01 9.356055156910292325e-02
3.116063781500039709e-01 9.534276091911686457e-02
3.123932629433120445e-01 9.749347792648377364e-02
3.131801477366201736e-01 1.000755000372752779e-01
3.139670325299282472e-01 1.031593421878587158e-01
3.147539173232363208e-01 1.068235602153939645e-01
3.155408021165444499e-01 1.111549998552952001e-01
3.163276869098525235e-01 1.162487666898133210e-01
3.171145717031605971e-01 1.222081774933587717e-01
3.179014564964686707e-01 1.291443309265334349e-01
3.186883412897767998e-01 1.371754091984218604e-01
3.194752260830848734e-01 1.464258251787331488e-01
3.202621108763929469e-01 1.570248400325824356e-01
3.210489956697010761e-01 1.691046513779095317e-01
3.218358804630091496e-01 1.827983211686721177e-01
3.226227652563172232e-01 1.982372399275891262e-01
3.234096500496253523e-01 2.155475663686421406e-01
3.241965348429334259e-01 2.348467357085302076e-01
3.249834196362414995e-01 2.562391093661877672e-01
3.257703044295496286e-01 2.798109606690706297e-01
3.265571892228577022e-01 3.056254605594430629e-01
3.273440740161657758e-01 3.337165871737022282e-01
3.281309588094738494e-01 3.640828293548385997e-01
3.289178436027819785e-01 3.966810962317606215e-01
3.297047283960900521e-01 4.314207641765301915e-01
3.304916131893981257e-01 4.681551593739450290e-01
3.312784979827062548e-01 5.066783981296090200e-01
3.320653827760143284e-01 5.467160909646915368e-01
3.328522675693224020e-01 5.879250678601082303e-01
3.336391523626305311e-01 6.298865093610224175e-01
3.344260371559386047e-01 6.721065876737579714e-01
3.352129219492466783e-01 7.140125284990475052e-01
3.359998067425548074e-01 7.549601210244436533e-01
3.367866915358628810e-01 7.942326189010389115e-01
3.375735763291709546e-01 8.310548443755561010e-01
3.383604611224790837e-01 8.645977675540119645e-01
3.391473459157871573e-01 8.939970066269271598e-01
3.399342307090952309e-01 9.183627190788425931e-01
3.407211155024033045e-01 9.368065277586721251e-01
3.415080002957114336e-01 9.484576398878044046e-01
3.422948850890195072e-01 9.524895899599095106e-01
3.430817698823275808e-01 9.481499133694899495e-01
3.438686546756357099e-01 9.347755327377971213e-01
3.446555394689437835e-01 9.118326890919925543e-01
3.454424242622518570e-01 8.789312291677848776e-01
3.462293090555599862e-01 8.358443878284638195e-01
3.470161938488680597e-01 7.825395607167315859e-01
3.478030786421761333e-01 7.191911261929668786e-01
3.485899634354842624e-01 6.461815443585028351e-01
3.493768482287923360e-01 5.641196741102902923e-01
3.501637330221004096e-01 4.738217234040487114e-01
3.509506178154085387e-01 3.763171107117586622e-01
3.517375026087166123e-01 2.728132962767106928e-01
3.525243874020246859e-01 1.646950494313195179e-01
3.533112721953327595e-01 5.347975498375001635e-02
3.540981569886408886e-01 -5.922801307764435919e-02
3.548850417819489622e-01 -1.717445510883719439e-01
3.556719265752570358e-01 -2.823758978333305025e-01
3.564588113685651649e-01 -3.894632608423683751e-01
3.572456961618732385e-01 -4.914115909955557582e-01
3.580325809551813121e-01 -5.867430683227969901e-01
3.588194657484894412e-01 -6.741315380665946488e-01
3.596063505417975148e-01 -7.524457389310497124e-01
3.603932353351055884e-01 -8.207643230666852308e-01
3.611801201284137175e-01 -8.784018662880653805e-01
3.619670049217217911e-01 -9.249308485393888946e-01
3.627538897150298647e-01 -9.601673665918537548e-01
3.635407745083379383e-01 -9.841832232997331786e-01
3.643276593016460674e-01 -9.972857788402483825e-01
3.651145440949541410e-01 -1.000000000000000000e+00
3.659014288882622146e-01 -9.930429994689885520e-01
3.666883136815703437e-01 -9.772957359911623731e-01
3.674751984748784173e-01 -9.537639074527149985e-01
3.682620832681864909e-01 -9.235290443461388055e-01
3.690489680614946200e-01 -8.877475939174922503e-01
3.698358528548026936e-01 -8.475652879358566150e-01
3.706227376481107672e-01 -8.041181501313424684e-01
3.714096224414188963e-01 -7.584976937912328854e-01
3.721965072347269698e-01 -7.117067776582488570e-01
3.729833920280350434e-01 -6.646552098374306494e-01
3.737702768213431725e-01 -6.181275097799334706e-01
3.745571616146512461e-01 -5.727892276668853366e-01
3.753440464079593197e-01 -5.291778774673301378e-01
3.761309312012673933e-01 -4.876908476821507632e-01
3.769178159945755224e-01 -4.486161739959002581e-01
3.777047007878835960e-01 -4.121130316135878102e-01
3.784915855811916696e-01 -3.782455302265288477e-01
3.792784703744997987e-01 -3.469828971828919917e-01
3.800653551678078723e-01 -3.182328145271827724e-01
3.808522399611159459e-01 -2.918438002173501244e-01
3.816391247544240750e-01 -2.676169310397694678e-01
3.824260095477321486e-01 -2.453443084240317651e-01
3.832128943410402222e-01 -2.247984345512403781e-01
3.839997791343483513e-01 -2.057659157345880230e-01
3.847866639276564249e-01 -1.880394029153057422e-01
3.855735487209644985e-01 -1.714331611591252136e-01
3.863604335142725721e-01 -1.557852677028380706e-01
3.871473183075807012e-01 -1.409627407296012436e-01
3.879342031008887748e-01 -1.268589749812845113e-01
3.887210878941968484e-01 -1.134018012625213068e-01
3.895079726875049775e-01 -1.005282089052756955e-01
3.902948574808130511e-01 -8.821255403302163955e-02
3.910817422741211247e-01 -7.643908397874998872e-02
3.918686270674292538e-01 -6.520193728496925800e-02
3.926555118607373274e-01 -5.450770809135740969e-02
3.934423966540454010e-01 -4.435822810338074795e-02
3.942292814473535301e-01 -3.476778462367524636e-02
3.950161662406616037e-01 -2.573308058240175722e-02
3.958030510339696773e-01 -1.725081890972124388e-02
3.965899358272778064e-01 -9.315504489235348906e-03
3.973768206205858800e-01 -1.903691490977132972e-03
3.981637054138939535e-01 5.001838116435397552e-03
3.989505902072020271e-01 1.143808478341812318e-02
3.997374750005101562e-01 1.744351432476110020e-02
4.005243597938182298e-01 2.305842426071902374e-02
4.013112445871263034e-01 2.831944870061553488e-02
4.020981293804344325e-01 3.326358809486684720e-02
4.028850141737425061e-01 3.792491216514370933e-02
4.036718989670505797e-01 4.232356967157335781e-02
4.044587837603587088e-01 4.649253131254704741e-02
4.052456685536667824e-01 5.043802488664939077e-02
4.060325533469748560e-01 5.416920892121157571e-02
4.068194381402829851e-01 5.768388536967394842e-02
4.076063229335910587e-01 6.096373717737479936e-02
4.083932077268991323e-01 6.399337801839877216e-02
4.091800925202072059e-01 6.675595620245688977e-02
4.099669773135153350e-01 6.920970884492105846e-02
4.107538621068234086e-01 7.133338816238365965e-02
4.115407469001314822e-01 7.311307319330184740e-02
4.123276316934396113e-01 7.451689226256474896e-02
4.131145164867476849e-01 7.553532050174815993e-02
4.139014012800557585e-01 7.616909059303855756e-02
4.146882860733638876e-01 7.643065813360561123e-02
4.154751708666719612e-01 7.634200358904363881e-02
4.162620556599800348e-01 7.592950351806515563e-02
4.170489404532881639e-01 7.526935686806202064e-02
4.178358252465962375e-01 7.442933674128249244e-02
4.186227100399043111e-01 7.349516695354219031e-02
4.194095948332124402e-01 7.258297763139598402e-02
4.201964796265205138e-01 7.182428522731365561e-02
4.209833644198285874e-01 7.133741791440906255e-02
4.217702492131366609e-01 7.127807065730573655e-02
4.225571340064447901e-01 7.179790866860114029e-02
4.233440187997528636e-01 7.303980497465567545e-02
4.241309035930609372e-01 7.516385063321151527e-02
4.249177883863690663e-01 7.830449282548435086e-02
4.257046731796771399e-01 8.260423823674178934e-02
4.264915579729852135e-01 8.816712773746093745e-02
4.272784427662933426e-01 9.508877635297552366e-02
4.280653275596014162e-01 1.034186401308716530e-01
4.288522123529094898e-01 1.131955512270319542e-01
4.296390971462176189e-01 1.244235393934820522e-01
4.304259819395256925e-01 1.370579110168475001e-01
4.312128667328337661e-01 1.510327247003466766e-01
4.319997515261418397e-01 1.662483356666208945e-01
4.327866363194499688e-01 1.825527123619787861e-01
4.335735211127580424e-01 1.997758725191609575e-01
4.343604059060661160e-01 2.177298831573399873e-01
4.351472906993742451e-01 2.361883454808986205e-01
4.359341754926823187e-01 2.549252270353132843e-01
4.367210602859903923e-01 2.737009407456103549e-01
4.375079450792985214e-01 2.922722361258842660e-01
4.382948298726065950e-01 3.103954963491362129e-01
4.390817146659146686e-01 3.278516494416137128e-01
4.398685994592227977e-01 3.444234551350304763e-01
4.406554842525308713e-01 3.599200497198131732e-01
4.414423690458389449e-01 3.741926987121095838e-01
4.422292538391470740e-01 3.870963310390000967e-01
4.430161386324551476e-01 3.985430248381092166e-01
4.438030234257632212e-01 4.084628089606299195e-01
4.445899082190712948e-01 4.168106234520942976e-01
4.453767930123794239e-01 4.235820722193841537e-01
4.461636778056874975e-01 4.288042645033980360e-01
4.469505625989955711e-01 4.325215275764173750e-01
4.477374473923037002e-01 4.347884462613333945e-01
4.485243321856117737e-01 4.356863482808437382e-01
4.493112169789198473e-01 4.353013237918574863e-01
4.500981017722279764e-01 4.337366809826659342e-01
4.508849865655360500e-01 4.310905992662554809e-01
4.516718713588441236e-01 4.274590600090522052e-01
4.524587561521522527e-01 4.229402426240427282e-01
4.532456409454603263e-01 4.176220689736021008e-01
4.540325257387683999e-01 4.115865994626142221e-01
4.548194105320764735e-01 4.048986764645812197e-01
4.556062953253846026e-01 3.976399940432937541e-01
4.563931801186926762e-01 3.898614736107108847e-01
4.571800649120007498e-01 3.816118385322324613e-01
4.579669497053088789e-01 3.729398121732581117e-01
4.587538344986169525e-01 3.638878901006028510e-01
4.595407192919250261e-01 3.544996669043609661e-01
4.603276040852331552e-01 3.448172718102544554e-01
4.611144888785412288e-01 3.348795369741655037e-01
4.619013736718493024e-01 3.247230965054173080e-01
4.626882584651574315e-01 3.143970401105031787e-01
4.634751432584655051e-01 3.039566852945005948e-01
4.642620280517735787e-01 2.934485573762504185e-01
4.650489128450817078e-01 2.829217460622452940e-01
4.658357976383897814e-01 2.724388956794281391e-01
4.666226824316978550e-01 2.620628337252877138e-01
4.674095672250059286e-01 2.518463133172497148e-01
4.681964520183140577e-01 2.418387905029002471e-01
4.689833368116221313e-01 2.321003452215291141e-01
4.697702216049302049e-01 2.226760374276042231e-01