0.000000000000000000e+00 1.029363520816328759e-02
7.868847933080908323e-04 8.605920108700737536e-02
1.573769586616181665e-03 8.605920108700737536e-02
2.360654379924272388e-03 8.605920108700737536e-02
3.147539173232363329e-03 8.605920108700737536e-02
3.934423966540453836e-03 8.605920108700737536e-02
4.721308759848544777e-03 8.605920108700737536e-02
5.508193553156635718e-03 8.605920108700737536e-02
6.295078346464726658e-03 8.605920108700737536e-02
7.081963139772817599e-03 8.605920108700737536e-02
7.868847933080907672e-03 8.605920108700737536e-02
8.655732726388998613e-03 8.605920108700737536e-02
9.442617519697089554e-03 8.605920108700737536e-02
1.022950231300518049e-02 8.605920108700737536e-02
1.101638710631327144e-02 8.605920108700737536e-02
1.180327189962136238e-02 8.605920108700737536e-02
1.259015669292945332e-02 8.605920108700737536e-02
1.337704148623754426e-02 8.605920108700737536e-02
1.416392627954563520e-02 8.605920108700737536e-02
1.495081107285372614e-02 8.605920108700737536e-02
1.573769586616181534e-02 8.605920108700737536e-02
1.652458065946990629e-02 8.605920108700737536e-02
1.731146545277799723e-02 8.605920108700737536e-02
1.809835024608608817e-02 8.605920108700737536e-02
1.888523503939417911e-02 8.605920108700737536e-02
1.967211983270227005e-02 8.605920108700737536e-02
2.045900462601036099e-02 8.605920108700737536e-02
2.124588941931845193e-02 8.605920108700737536e-02
2.203277421262654287e-02 8.605920108700737536e-02
2.281965900593463381e-02 8.605920108700737536e-02
2.360654379924272475e-02 8.605920108700737536e-02
2.439342859255081569e-02 8.605920108700737536e-02
2.518031338585890663e-02 8.605920108700737536e-02
2.596719817916699757e-02 8.605920108700737536e-02
2.675408297247508851e-02 8.605920108700737536e-02
2.754096776578317946e-02 8.605920108700737536e-02
2.832785255909127040e-02 8.605920108700737536e-02
2.911473735239936134e-02 8.605920108700737536e-02
2.990162214570745228e-02 8.605920108700737536e-02
3.068850693901554322e-02 8.605920108700737536e-02
3.147539173232363069e-02 8.605920108700737536e-02
3.226227652563172510e-02 8.605920108700737536e-02
3.304916131893981257e-02 8.605920108700737536e-02
3.383604611224790698e-02 8.605920108700737536e-02
3.462293090555599445e-02 8.605920108700737536e-02
3.540981569886408886e-02 8.605920108700737536e-02
3.619670049217217633e-02 8.605920108700737536e-02
3.698358528548027074e-02 8.605920108700737536e-02
3.777047007878835821e-02 8.605920108700737536e-02
3.855735487209645262e-02 8.605920108700737536e-02
3.934423966540454010e-02 8.605920108700737536e-02
4.013112445871263451e-02 8.605920108700737536e-02
4.091800925202072198e-02 8.605920108700737536e-02
4.170489404532881639e-02 8.605920108700737536e-02
4.249177883863690386e-02 8.605920108700737536e-02
4.327866363194499827e-02 8.605920108700737536e-02
4.406554842525308574e-02 8.605920108700737536e-02
4.485243321856118015e-02 8.605920108700737536e-02
4.563931801186926762e-02 8.605920108700737536e-02
4.642620280517736203e-02 8.605920108700737536e-02
4.721308759848544950e-02 8.605920108700737536e-02
4.799997239179354391e-02 8.605920108700737536e-02
4.878685718510163138e-02 8.605920108700737536e-02
4.957374197840972579e-02 8.605920108700737536e-02
5.036062677171781327e-02 8.605920108700737536e-02
5.114751156502590074e-02 8.605920108700737536e-02
5.193439635833399515e-02 8.605920108700737536e-02
5.272128115164208262e-02 8.605920108700737536e-02
5.350816594495017703e-02 8.605920108700737536e-02
5.429505073825826450e-02 8.605920108700737536e-02
5.508193553156635891e-02 8.605920108700737536e-02
5.586882032487444638e-02 8.605920108700737536e-02
5.665570511818254079e-02 8.605920108700737536e-02
5.744258991149062826e-02 8.605920108700737536e-02
5.822947470479872267e-02 8.605920108700737536e-02
5.901635949810681014e-02 8.605920108700737536e-02
5.980324429141490455e-02 8.605920108700737536e-02
6.059012908472299203e-02 8.605920108700737536e-02
6.137701387803108644e-02 8.605920108700737536e-02
6.216389867133917391e-02 8.605920108700737536e-02
6.295078346464726138e-02 8.605920108700737536e-02
6.373766825795536273e-02 8.605920108700737536e-02
6.452455305126345020e-02 8.605920108700737536e-02
6.531143784457153767e-02 8.605920108700737536e-02
6.609832263787962514e-02 8.605920108700737536e-02
6.688520743118772649e-02 8.605920108700737536e-02
6.767209222449581396e-02 8.605920108700737536e-02
6.845897701780390143e-02 8.605920108700737536e-02
6.924586181111198890e-02 8.605920108700737536e-02
7.003274660442009025e-02 8.605920108700737536e-02
7.081963139772817772e-02 8.605920108700737536e-02
7.160651619103626520e-02 8.605920108700737536e-02
7.239340098434435267e-02 8.605920108700737536e-02
7.318028577765245402e-02 8.605920108700737536e-02
7.396717057096054149e-02 8.605920108700737536e-02
7.475405536426862896e-02 8.605920108700737536e-02
7.554094015757671643e-02 8.605920108700737536e-02
7.632782495088480390e-02 8.605920108700737536e-02
7.711470974419290525e-02 8.605920108700737536e-02
7.790159453750099272e-02 8.605920108700737536e-02
7.868847933080908019e-02 8.605920108700737536e-02
7.947536412411716766e-02 8.605920108700737536e-02
8.026224891742526901e-02 8.605920108700737536e-02
8.104913371073335648e-02 8.605920108700737536e-02
8.183601850404144396e-02 8.605920108700737536e-02
8.262290329734953143e-02 8.605920108700737536e-02
8.340978809065763278e-02 8.605920108700737536e-02
8.419667288396572025e-02 8.605920108700737536e-02
8.498355767727380772e-02 8.605920108700737536e-02
8.577044247058189519e-02 8.605920108700737536e-02
8.655732726388999654e-02 8.605920108700737536e-02
8.734421205719808401e-02 8.605920108700737536e-02
8.813109685050617148e-02 8.605920108700737536e-02
8.891798164381425895e-02 8.605920108700737536e-02
8.970486643712236030e-02 8.605920108700737536e-02
9.049175123043044777e-02 8.605920108700737536e-02
9.127863602373853524e-02 8.605920108700737536e-02
9.206552081704662271e-02 8.605920108700737536e-02
9.285240561035472406e-02 8.605920108700737536e-02
9.363929040366281153e-02 8.605920108700737536e-02
9.442617519697089901e-02 8.605920108700737536e-02
9.521305999027898648e-02 8.605920108700737536e-02
9.599994478358708783e-02 8.605920108700737536e-02
9.678682957689517530e-02 8.605920108700737536e-02
9.757371437020326277e-02 8.605920108700737536e-02
9.836059916351135024e-02 8.605920108700737536e-02
9.914748395681945159e-02 8.605920108700737536e-02
9.993436875012753906e-02 8.605920108700737536e-02
1.007212535434356265e-01 8.605920108700737536e-02
1.015081383367437140e-01 8.605920108700737536e-02
1.022950231300518015e-01 8.605920108700737536e-02
1.030819079233599028e-01 8.605920108700737536e-02
1.038687927166679903e-01 8.605920108700737536e-02
1.046556775099760778e-01 8.605920108700737536e-02
1.054425623032841652e-01 8.605920108700737536e-02
1.062294470965922666e-01 8.605920108700737536e-02
1.070163318899003541e-01 8.605920108700737536e-02
1.078032166832084415e-01 8.605920108700737536e-02
1.085901014765165290e-01 8.605920108700737536e-02
1.093769862698246303e-01 8.605920108700737536e-02
1.101638710631327178e-01 8.605920108700737536e-02
1.109507558564408053e-01 8.605920108700737536e-02
1.117376406497488928e-01 8.605920108700737536e-02
1.125245254430569941e-01 8.605920108700737536e-02
1.133114102363650816e-01 8.605920108700737536e-02
1.140982950296731691e-01 8.605920108700737536e-02
1.148851798229812565e-01 8.605920108700737536e-02
1.156720646162893579e-01 8.605920108700737536e-02
1.164589494095974453e-01 8.605920108700737536e-02
1.172458342029055328e-01 8.605920108700737536e-02
1.180327189962136203e-01 8.605920108700737536e-02
1.188196037895217216e-01 8.605920108700737536e-02
1.196064885828298091e-01 8.605920108700737536e-02
1.203933733761378966e-01 8.605920108700737536e-02
1.211802581694459841e-01 8.605920108700737536e-02
1.219671429627540854e-01 8.605920108700737536e-02
1.227540277560621729e-01 8.605920108700737536e-02
1.235409125493702603e-01 8.605920108700737536e-02
1.243277973426783478e-01 8.605920108700737536e-02
1.251146821359864492e-01 8.605920108700737536e-02
1.259015669292945228e-01 8.605920108700737536e-02
1.266884517226026241e-01 8.605920108700737536e-02
1.274753365159107255e-01 8.605920108700737536e-02
1.282622213092187990e-01 8.605920108700737536e-02
1.290491061025269004e-01 8.605920108700737536e-02
1.298359908958349740e-01 8.605920108700737536e-02
1.306228756891430753e-01 8.605920108700737536e-02
1.314097604824511767e-01 8.605920108700737536e-02
1.321966452757592503e-01 8.605920108700737536e-02
1.329835300690673516e-01 8.605920108700737536e-02
1.337704148623754530e-01 8.605920108700737536e-02
1.345572996556835266e-01 8.605920108700737536e-02
1.353441844489916279e-01 8.605920108700737536e-02
1.361310692422997015e-01 8.605920108700737536e-02
1.369179540356078029e-01 8.605920108700737536e-02
1.377048388289159042e-01 8.605920108700737536e-02
1.384917236222239778e-01 8.605920108700737536e-02
1.392786084155320792e-01 8.605920108700737536e-02
1.400654932088401805e-01 8.605920108700737536e-02
1.408523780021482541e-01 8.605920108700737536e-02
1.416392627954563554e-01 8.605920108700737536e-02
1.424261475887644290e-01 8.605920108700737536e-02
1.432130323820725304e-01 8.605920108700737536e-02
1.439999171753806317e-01 8.605920108700737536e-02
1.447868019686887053e-01 8.605920108700737536e-02
1.455736867619968067e-01 8.605920108700737536e-02
1.463605715553049080e-01 8.605920108700737536e-02
1.471474563486129816e-01 8.605920108700737536e-02
1.479343411419210830e-01 8.605920108700737536e-02
1.487212259352291566e-01 8.605920108700737536e-02
1.495081107285372579e-01 8.605920108700737536e-02
1.502949955218453593e-01 8.605920108700737536e-02
1.510818803151534329e-01 8.605920108700737536e-02
1.518687651084615342e-01 8.605920108700737536e-02
1.526556499017696078e-01 8.605920108700737536e-02
1.534425346950777092e-01 8.605920108700737536e-02
1.542294194883858105e-01 8.605920108700737536e-02
1.550163042816938841e-01 8.605920108700737536e-02
1.558031890750019854e-01 8.605920108700737536e-02
1.565900738683100868e-01 8.605920108700737536e-02
1.573769586616181604e-01 8.605920108700737536e-02
1.581638434549262617e-01 8.605920108700737536e-02
1.589507282482343353e-01 8.605920108700737536e-02
1.597376130415424367e-01 8.605920108700737536e-02
1.605244978348505380e-01 8.605920108700737536e-02
1.613113826281586116e-01 8.605920108700737536e-02
1.620982674214667130e-01 8.605920108700737536e-02
1.628851522147748143e-01 8.605920108700737536e-02
1.636720370080828879e-01 8.605920108700737536e-02
1.644589218013909893e-01 8.605920108700737536e-02
1.652458065946990629e-01 8.605920108700737536e-02
1.660326913880071642e-01 8.605920108700737536e-02
1.668195761813152656e-01 8.605920108700737536e-02
1.676064609746233391e-01 8.605920108700737536e-02
1.683933457679314405e-01 8.605920108700737536e-02
1.691802305612395418e-01 8.605920108700737536e-02
1.699671153545476154e-01 8.605920108700737536e-02
1.707540001478557168e-01 8.605920108700737536e-02
1.715408849411637904e-01 8.605920108700737536e-02
1.723277697344718917e-01 8.605920108700737536e-02
1.731146545277799931e-01 8.605920108700737536e-02
1.739015393210880667e-01 8.605920108700737536e-02
1.746884241143961680e-01 8.605920108700737536e-02
1.754753089077042694e-01 8.605920108700737536e-02
1.762621937010123430e-01 8.605920108700737536e-02
1.770490784943204443e-01 8.605920108700737536e-02
1.778359632876285179e-01 8.605920108700737536e-02
1.786228480809366193e-01 8.605920108700737536e-02
1.794097328742447206e-01 8.605920108700737536e-02
1.801966176675527942e-01 8.605920108700737536e-02
1.809835024608608955e-01 8.605920108700737536e-02
1.817703872541689691e-01 8.605920108700737536e-02
1.825572720474770705e-01 8.605920108700737536e-02
1.833441568407851718e-01 8.605920108700737536e-02
1.841310416340932454e-01 8.605920108700737536e-02
1.849179264274013468e-01 8.605920108700737536e-02
1.857048112207094481e-01 8.605920108700737536e-02
1.864916960140175217e-01 8.605920108700737536e-02
1.872785808073256231e-01 8.605920108700737536e-02
1.880654656006336967e-01 8.605920108700737536e-02
1.888523503939417980e-01 8.605920108700737536e-02
1.896392351872498994e-01 8.605920108700737536e-02
1.904261199805579730e-01 8.605920108700737536e-02
1.912130047738660743e-01 8.605920108700737536e-02
1.919998895671741757e-01 8.605920108700737536e-02
1.927867743604822492e-01 8.605920108700737536e-02
1.935736591537903506e-01 8.605920108700737536e-02
1.943605439470984242e-01 8.605920108700737536e-02
1.951474287404065255e-01 8.605920108700737536e-02
1.959343135337146269e-01 8.605920108700737536e-02
1.967211983270227005e-01 8.605920108700737536e-02
1.975080831203308018e-01 8.605920108700737536e-02
1.982949679136389032e-01 8.605920108700737536e-02
1.990818527069469768e-01 8.605920108700737536e-02
1.998687375002550781e-01 8.605920108700737536e-02
2.006556222935631517e-01 8.605920108700737536e-02
2.014425070868712531e-01 8.605920108700737536e-02
2.022293918801793544e-01 8.605920108700737536e-02
2.030162766734874280e-01 8.605920108700737536e-02
2.038031614667955294e-01 8.605920108700737536e-02
2.045900462601036029e-01 8.605920108700737536e-02
2.053769310534117043e-01 8.605920108700737536e-02
2.061638158467198056e-01 8.605920108700737536e-02
2.069507006400278792e-01 8.605920108700737536e-02
2.077375854333359806e-01 8.605920108700737536e-02
2.085244702266440819e-01 8.605920108700737536e-02
2.093113550199521555e-01 8.605920108700737536e-02
2.100982398132602569e-01 8.605920108700737536e-02
2.108851246065683305e-01 8.605920108700737536e-02
2.116720093998764318e-01 8.605920108700737536e-02
2.124588941931845332e-01 8.605920108700737536e-02
2.132457789864926068e-01 8.605920108700737536e-02
2.140326637798007081e-01 8.605920108700737536e-02
2.148195485731088095e-01 8.605920108700737536e-02
2.156064333664168831e-01 8.605920108700737536e-02
2.163933181597249844e-01 8.605920108700737536e-02
2.171802029530330580e-01 8.605920108700737536e-02
2.179670877463411593e-01 8.605920108700737536e-02
2.187539725396492607e-01 8.605920108700737536e-02
2.195408573329573343e-01 8.605920108700737536e-02
2.203277421262654356e-01 8.605920108700737536e-02
2.211146269195735370e-01 8.605920108700737536e-02
2.219015117128816106e-01 8.605920108700737536e-02
2.226883965061897119e-01 8.605920108700737536e-02
2.234752812994977855e-01 8.605920108700737536e-02
2.242621660928058869e-01 8.605920108700737536e-02
2.250490508861139882e-01 8.605920108700737536e-02
2.258359356794220618e-01 8.605920108700737536e-02
2.266228204727301632e-01 8.605920108700737536e-02
2.274097052660382368e-01 8.605920108700737536e-02
2.281965900593463381e-01 8.605920108700737536e-02
2.289834748526544395e-01 8.605920108700737536e-02
2.297703596459625131e-01 8.605920108700737536e-02
2.305572444392706144e-01 8.605920108700737536e-02
2.313441292325787157e-01 8.605920108700737536e-02
2.321310140258867893e-01 8.605920108700737536e-02
2.329178988191948907e-01 8.605920108700737536e-02
2.337047836125029643e-01 8.605920108700737536e-02
2.344916684058110656e-01 8.605920108700737536e-02
2.352785531991191670e-01 8.605920108700737536e-02
2.360654379924272406e-01 8.605920108700737536e-02
2.368523227857353419e-01 8.605920108700737536e-02
2.376392075790434433e-01 8.605920108700737536e-02
2.384260923723515169e-01 8.605920108700737536e-02
2.392129771656596182e-01 8.605920108700737536e-02
2.399998619589676918e-01 8.605920108700737536e-02
2.407867467522757932e-01 8.605920108700737536e-02
2.415736315455838945e-01 8.605920108700737536e-02
2.423605163388919681e-01 8.605920108700737536e-02
2.431474011322000695e-01 8.605920108700737536e-02
2.439342859255081708e-01 8.605920108700737536e-02
2.447211707188162444e-01 8.605920108700737536e-02
2.455080555121243457e-01 8.605920108700737536e-02
2.462949403054324193e-01 8.605920108700737536e-02
2.470818250987405207e-01 8.605920108700737536e-02
2.478687098920486220e-01 8.605920108700781945e-02
2.486555946853566956e-01 8.605920108700804150e-02
2.494424794786647970e-01 8.605920108701026194e-02
2.502293642719728983e-01 8.605920108701248239e-02
2.510162490652809719e-01 8.605920108702314053e-02
2.518031338585890455e-01 8.605920108703490889e-02
2.525900186518971746e-01 8.605920108708620120e-02
2.533769034452052482e-01 8.605920108714437688e-02
2.541637882385133218e-01 8.605920108737064034e-02
2.549506730318214509e-01 8.605920108763243093e-02
2.557375578251295245e-01 8.605920108854836492e-02
2.565244426184375981e-01 8.605920108963505122e-02
2.573113274117457272e-01 8.605920109304698862e-02
2.580982122050538008e-01 8.605920109720632816e-02
2.588850969983618744e-01 8.605920110891651653e-02
2.596719817916699480e-01 8.605920112362341889e-02
2.604588665849780771e-01 8.605920116075305160e-02
2.612457513782861507e-01 8.605920120890342417e-02
2.620326361715942243e-01 8.605920131812405671e-02
2.628195209649023534e-01 8.605920146457579634e-02
2.636064057582104270e-01 8.605920176447834358e-02
2.643932905515185006e-01 8.605920218021401169e-02
2.651801753448266297e-01 8.605920295547631049e-02
2.659670601381347033e-01 8.605920406379397036e-02
2.667539449314427769e-01 8.605920597094796065e-02
2.675408297247509060e-01 8.605920876758466065e-02
2.683277145180589796e-01 8.605921328568699735e-02
2.691145993113670531e-01 8.605922002545107752e-02
2.699014841046751823e-01 8.605923044501273544e-02
2.706883688979832558e-01 8.605924610048854007e-02
2.714752536912913294e-01 8.605926966247712251e-02
2.722621384845994030e-01 8.605930498917024885e-02
2.730490232779075321e-01 8.605935736760783605e-02
2.738359080712156057e-01 8.605943521492864789e-02
2.746227928645236793e-01 8.605954955607342249e-02
2.754096776578318084e-01 8.605971748364660279e-02
2.761965624511398820e-01 8.605996201166066228e-02
2.769834472444479556e-01 8.606031669907765469e-02
2.777703320377560847e-01 8.606082809706072645e-02
2.785572168310641583e-01 8.606156113298446542e-02
2.793441016243722319e-01 8.606260640218188485e-02
2.801309864176803610e-01 8.606408783443475485e-02
2.809178712109884346e-01 8.606617606523991881e-02
2.817047560042965082e-01 8.606910277902479756e-02
2.824916407976045818e-01 8.607318112703254975e-02
2.832785255909127109e-01 8.607883277101446851e-02
2.840654103842207845e-01 8.608661885244184298e-02
2.848522951775288581e-01 8.609728538965644162e-02
2.856391799708369872e-01 8.611181271234036316e-02
2.864260647641450608e-01 8.613148499874223596e-02
2.872129495574531344e-01 8.615796873860914751e-02
2.879998343507612635e-01 8.619341557097248696e-02
2.887867191440693371e-01 8.624057989609523744e-02
2.895736039373774107e-01 8.630296761210298762e-02
2.903604887306855398e-01 8.638500306357754788e-02
2.911473735239936134e-01 8.649223477302681040e-02
2.919342583173016870e-01 8.663156450468711967e-02
2.927211431106098161e-01 8.681151275225329478e-02
2.935080279039178897e-01 8.704252050519856176e-02
2.942949126972259632e-01 8.733727232387611394e-02
2.950817974905340368e-01 8.771106348556068077e-02
2.958686822838421659e-01 8.818217222849922265e-02
2.966555670771502395e-01 8.877226419390860102e-02
2.974424518704583131e-01 8.950678345216211973e-02
2.982293366637664422e-01 9.041534156132380318e-02
2.990162214570745158e-01 9.153206405283986768e-02
2.998031062503825894e-01 9.289589863744929232e-02
3.005899910436907185e-01 9.455081018164479545e-02
3.013768758369987921e-01 9.654589948232339403e-02
3.021637606303068657e-01 9.893532348742795079e-02
3.029506454236149948e-01 1.017780960264262902e-01
3.037375302169230684e-01 1.051376041255869254e-01
3.045244150102311420e-01 1.090809111012891464e-01
3.053112998035392156e-01 1.136777534150774649e-01
3.060981845968473447e-01 1.189992298594366726e-01
3.068850693901554183e-01 1.251162159877481361e-01
3.076719541834634919e-01 1.320973721345943819e-01
3.084588389767716210e-01 1.400067736468137980e-01
3.092457237700796946e-01 1.489015869071892428e-01
3.100326085633877682e-01 1.588289783314738024e-01
3.108194933566958973e-01 1.698233553620338565e-01
3.116063781500039709e-01 1.819030751220878095e-01
3.123932629433120445e-01 1.950677025815874543e-01
3.131801477366201736e-01 2.092946734188214641e-01
3.139670325299282472e-01 2.245370043885830391e-01
3.147539173232363208e-01 2.407206259010845617e-01
3.155408021165444499e-01 2.577435806508159288e-01
3.163276869098525235e-01 2.754738942589405326e-01
3.171145717031605971e-01 2.937499187180698801e-01
3.179014564964686707e-01 3.123817977566369919e-01
3.186883412897767998e-01 3.311518331799889747e-01
3.194752260830848734e-01 3.498186977929598207e-01
3.202621108763929469e-01 3.681200913727955548e-01
3.210489956697010761e-01 3.857787852971932274e-01
3.218358804630091496e-01 4.025055532730470453e-01
3.226227652563172232e-01 4.180096578502408011e-01
3.234096500496253523e-01 4.320021474914885751e-01
3.241965348429334259e-01 4.442054272333939569e-01
3.249834196362414995e-01 4.543573800237499238e-01
3.257703044295496286e-01 4.622218990279689521e-01
3.265571892228577022e-01 4.675922762841948632e-01
3.273440740161657758e-01 4.702962398933361321e-01
3.281309588094738494e-01 4.702066694960409521e-01
3.289178436027819785e-01 4.672349105477477949e-01
3.297047283960900521e-01 4.613454279624127352e-01
3.304916131893981257e-01 4.525418851509681595e-01
3.312784979827062548e-01 4.408748371842803326e-01
3.320653827760143284e-01 4.264395327465893004e-01
3.328522675693224020e-01 4.093649239027121745e-01
3.336391523626305311e-01 3.898228246253749862e-01
3.344260371559386047e-01 3.680097769110961536e-01
3.352129219492466783e-01 3.441523627260392182e-01
3.359998067425548074e-01 3.184901691451778039e-01
3.367866915358628810e-01 2.912794517632271152e-01
3.375735763291709546e-01 2.627836098262206210e-01
3.383604611224790837e-01 2.332601811226999722e-01
3.391473459157871573e-01 2.029732975808848927e-01
3.399342307090952309e-01 1.721779326016645850e-01
3.407211155024033045e-01 1.411177030120380760e-01
3.415080002957114336e-01 1.100296314993260971e-01
3.422948850890195072e-01 7.914194856461143068e-02
3.430817698823275808e-01 4.866676570087546949e-02
3.438686546756357099e-01 1.880520416830222530e-02
3.446555394689437835e-01 -1.023685233871240996e-02
3.454424242622518570e-01 -3.828172838995103078e-02
3.462293090555599862e-01 -6.513929295802667330e-02
3.470161938488680597e-01 -9.063901426403997430e-02
3.478030786421761333e-01 -1.146088951647188381e-01
3.485899634354842624e-01 -1.368760226640580724e-01
3.493768482287923360e-01 -1.572817710686884585e-01
3.501637330221004096e-01 -1.756653166386812348e-01
3.509506178154085387e-01 -1.918771922079982595e-01
3.517375026087166123e-01 -2.057763564557452129e-01
3.525243874020246859e-01 -2.172399019451429769e-01
3.533112721953327595e-01 -2.261515153790907284e-01
3.540981569886408886e-01 -2.324216263602931765e-01
3.548850417819489622e-01 -2.359857588563417652e-01
3.556719265752570358e-01 -2.368102094866590956e-01
3.564588113685651649e-01 -2.348924138635924974e-01
3.572456961618732385e-01 -2.302699219491983751e-01
3.580325809551813121e-01 -2.230051948998725830e-01
3.588194657484894412e-01 -2.132209569818476202e-01
3.596063505417975148e-01 -2.010636530471427985e-01
3.603932353351055884e-01 -1.867432881274529999e-01
3.611801201284137175e-01 -1.704891001618678015e-01
3.619670049217217911e-01 -1.525823475247156669e-01
3.627538897150298647e-01 -1.333362518507094086e-01
3.635407745083379383e-01 -1.130828097555900413e-01
3.643276593016460674e-01 -9.219248366988785914e-02
3.651145440949541410e-01 -7.104223857853797508e-02
3.659014288882622146e-01 -5.002199878264856903e-02
3.666883136815703437e-01 -2.952961070946902300e-02
3.674751984748784173e-01 -9.949778299528921899e-03
3.682620832681864909e-01 8.344105287895642320e-03
3.690489680614946200e-01 2.499705553346309728e-02
3.698358528548026936e-01 3.969232476943873600e-02
3.706227376481107672e-01 5.213587847586720336e-02
3.714096224414188963e-01 6.208377927729324952e-02
3.721965072347269698e-01 6.933211256269689038e-02
3.729833920280350434e-01 7.373635677079848350e-02
3.737702768213431725e-01 7.518070232350004822e-02
3.745571616146512461e-01 7.362384426253987257e-02
3.753440464079593197e-01 6.907045343685647154e-02
3.761309312012673933e-01 6.156819998120677262e-02
3.769178159945755224e-01 5.122350598317426673e-02
3.777047007878835960e-01 3.818391531805831463e-02
3.784915855811916696e-01 2.263026310800486662e-02
3.792784703744997987e-01 4.791329365737118096e-03
3.800653551678078723e-01 -1.508464402544384964e-02
3.808522399611159459e-01 -3.671740612921614577e-02
3.816391247544240750e-01 -5.981379248572138430e-02
3.824260095477321486e-01 -8.406348929267415393e-02
3.832128943410402222e-01 -1.091470013241399029e-01
3.839997791343483513e-01 -1.347492752399396254e-01
3.847866639276564249e-01 -1.605519606300553903e-01
3.855735487209644985e-01 -1.862417213781825120e-01
3.863604335142725721e-01 -2.115163260824051150e-01
3.871473183075807012e-01 -2.360897081415461729e-01
3.879342031008887748e-01 -2.596840436290261955e-01
3.887210878941968484e-01 -2.820419779268501514e-01
3.895079726875049775e-01 -3.029203063417489350e-01
3.902948574808130511e-01 -3.221027502508062579e-01
3.910817422741211247e-01 -3.393860819325518197e-01
3.918686270674292538e-01 -3.545887793752895423e-01
3.926555118607373274e-01 -3.675569793198620872e-01
3.934423966540454010e-01 -3.781577915346999719e-01
3.942292814473535301e-01 -3.862837864942127997e-01
3.950161662406616037e-01 -3.918472255065719168e-01
3.958030510339696773e-01 -3.947975535009111692e-01
3.965899358272778064e-01 -3.951098592828909961e-01
3.973768206205858800e-01 -3.927852418757910025e-01
3.981637054138939535e-01 -3.878607017300275128e-01
3.989505902072020271e-01 -3.803996158547295892e-01
3.997374750005101562e-01 -3.705014458567097435e-01
4.005243597938182298e-01 -3.582901981960265880e-01
4.013112445871263034e-01 -3.439259639304222960e-01
4.020981293804344325e-01 -3.275977750640043373e-01
4.028850141737425061e-01 -3.095052874925838804e-01
4.036718989670505797e-01 -2.898752663528710860e-01
4.044587837603587088e-01 -2.689546255417040177e-01
4.052456685536667824e-01 -2.469818531107762505e-01
4.060325533469748560e-01 -2.242207146472144919e-01
4.068194381402829851e-01 -2.009107972259919217e-01
4.076063229335910587e-01 -1.772913215809889254e-01
4.083932077268991323e-01 -1.535886865078224250e-01
4.091800925202072059e-01 -1.300036469255830829e-01
4.099669773135153350e-01 -1.067043533960643220e-01
4.107538621068234086e-01 -8.384540186060973621e-02
4.115407469001314822e-01 -6.153229855407005289e-02
4.123276316934396113e-01 -3.984710388132894909e-02
4.131145164867476849e-01 -1.884037291325246777e-02
4.139014012800557585e-01 1.470309977684269853e-03
4.146882860733638876e-01 2.109043990787995426e-02
4.154751708666719612e-01 4.005665098665733836e-02
4.162620556599800348e-01 5.841986462597592578e-02
4.170489404532881639e-01 7.623723003637961071e-02
4.178358252465962375e-01 9.357688666120944632e-02
4.186227100399043111e-01 1.105069739438064857e-01
4.194095948332124402e-01 1.270930669398593338e-01
4.201964796265205138e-01 1.433820573093016471e-01
4.209833644198285874e-01 1.594102128203629398e-01
4.217702492131366609e-01 1.751888900469338317e-01
4.225571340064447901e-01 1.907166236246411462e-01
4.233440187997528636e-01 2.059692350413315776e-01
4.241309035930609372e-01 2.209027633658173784e-01
4.249177883863690663e-01 2.354538315889695976e-01
4.257046731796771399e-01 2.495389139415316038e-01
4.264915579729852135e-01 2.630722866076868893e-01
4.272784427662933426e-01 2.759561365155429602e-01
4.280653275596014162e-01 2.880926505932068782e-01
4.288522123529094898e-01 2.993836494276926885e-01
4.296390971462176189e-01 3.097467062730234755e-01
4.304259819395256925e-01 3.191063548639931913e-01
4.312128667328337661e-01 3.274080103777103901e-01
4.319997515261418397e-01 3.346128406582928871e-01
4.327866363194499688e-01 3.407065584031045979e-01
4.335735211127580424e-01 3.456920943408909874e-01
4.343604059060661160e-01 3.496156074493996790e-01
4.351472906993742451e-01 3.525155635434196189e-01
4.359341754926823187e-01 3.544714586401822576e-01
4.367210602859903923e-01 3.555840365403259984e-01
4.375079450792985214e-01 3.559397537418538260e-01
4.382948298726065950e-01 3.556620671931842725e-01
4.390817146659146686e-01 3.548707704318043721e-01
4.398685994592227977e-01 3.536860233362939532e-01
4.406554842525308713e-01 3.522316491961652307e-01
4.414423690458389449e-01 3.506204810681334827e-01
4.422292538391470740e-01 3.489499656829981866e-01
4.430161386324551476e-01 3.473190151359317746e-01
4.438030234257632212e-01 3.458005313044876239e-01
4.445899082190712948e-01 3.444564258334215090e-01
4.453767930123794239e-01 3.433310259950144161e-01
4.461636778056874975e-01 3.424510746890725432e-01
4.469505625989955711e-01 3.418293938538587984e-01
4.477374473923037002e-01 3.414505971634576031e-01
4.485243321856117737e-01 3.413047934083515145e-01
4.493112169789198473e-01 3.413538831148443808e-01
4.500981017722279764e-01 3.415498755997232738e-01
4.508849865655360500e-01 3.418411167688422125e-01
4.516718713588441236e-01 3.421667940007249165e-01
4.524587561521522527e-01 3.424558371232846454e-01
4.532456409454603263e-01 3.426408393753663795e-01
4.540325257387683999e-01 3.426426710808325726e-01
4.548194105320764735e-01 3.424008859592999610e-01
4.556062953253846026e-01 3.418387355517362725e-01
4.563931801186926762e-01 3.408875309031609291e-01
4.571800649120007498e-01 3.394829791517115503e-01
4.579669497053088789e-01 3.375673815752044948e-01
4.587538344986169525e-01 3.350868860329343502e-01
4.595407192919250261e-01 3.319859918492769069e-01
4.603276040852331552e-01 3.282335600313075474e-01
4.611144888785412288e-01 3.237909415936899293e-01
4.619013736718493024e-01 3.186282797373261033e-01
4.626882584651574315e-01 3.127259752137279136e-01
4.634751432584655051e-01 3.060768843715775400e-01
4.642620280517735787e-01 2.986709328308110312e-01
4.650489128450817078e-01 2.905174622893058611e-01
4.658357976383897814e-01 2.816194034758077169e-01
4.666226824316978550e-01 2.720022170962961283e-01
4.674095672250059286e-01 2.616926460505775154e-01
4.681964520183140577e-01 2.507320868821862891e-01
4.689833368116221313e-01 2.391665153983235648e-01
4.697702216049302049e-01 2.270408999681832185e-01