0.000000000000000000e+00 -1.093986089662346561e-02
7.868847933080908323e-04 8.605920108700737536e-02
1.573769586616181665e-03 8.605920108700737536e-02
2.360654379924272388e-03 8.605920108700737536e-02
3.147539173232363329e-03 8.605920108700737536e-02
3.934423966540453836e-03 8.605920108700737536e-02
4.721308759848544777e-03 8.605920108700737536e-02
5.508193553156635718e-03 8.605920108700737536e-02
6.295078346464726658e-03 8.605920108700737536e-02
7.081963139772817599e-03 8.605920108700737536e-02
7.868847933080907672e-03 8.605920108700737536e-02
8.655732726388998613e-03 8.605920108700737536e-02
9.442617519697089554e-03 8.605920108700737536e-02
1.022950231300518049e-02 8.605920108700737536e-02
1.101638710631327144e-02 8.605920108700737536e-02
1.180327189962136238e-02 8.605920108700737536e-02
1.259015669292945332e-02 8.605920108700737536e-02
1.337704148623754426e-02 8.605920108700737536e-02
1.416392627954563520e-02 8.605920108700737536e-02
1.495081107285372614e-02 8.605920108700737536e-02
1.573769586616181534e-02 8.605920108700737536e-02
1.652458065946990629e-02 8.605920108700737536e-02
1.731146545277799723e-02 8.605920108700737536e-02
1.809835024608608817e-02 8.605920108700737536e-02
1.888523503939417911e-02 8.605920108700737536e-02
1.967211983270227005e-02 8.605920108700737536e-02
2.045900462601036099e-02 8.605920108700737536e-02
2.124588941931845193e-02 8.605920108700737536e-02
2.203277421262654287e-02 8.605920108700737536e-02
2.281965900593463381e-02 8.605920108700737536e-02
2.360654379924272475e-02 8.605920108700737536e-02
2.439342859255081569e-02 8.605920108700737536e-02
2.518031338585890663e-02 8.605920108700737536e-02
2.596719817916699757e-02 8.605920108700737536e-02
2.675408297247508851e-02 8.605920108700737536e-02
2.754096776578317946e-02 8.605920108700737536e-02
2.832785255909127040e-02 8.605920108700737536e-02
2.911473735239936134e-02 8.605920108700737536e-02
2.990162214570745228e-02 8.605920108700737536e-02
3.068850693901554322e-02 8.605920108700737536e-02
3.147539173232363069e-02 8.605920108700737536e-02
3.226227652563172510e-02 8.605920108700737536e-02
3.304916131893981257e-02 8.605920108700737536e-02
3.383604611224790698e-02 8.605920108700737536e-02
3.462293090555599445e-02 8.605920108700737536e-02
3.540981569886408886e-02 8.605920108700737536e-02
3.619670049217217633e-02 8.605920108700737536e-02
3.698358528548027074e-02 8.605920108700737536e-02
3.777047007878835821e-02 8.605920108700737536e-02
3.855735487209645262e-02 8.605920108700737536e-02
3.934423966540454010e-02 8.605920108700737536e-02
4.013112445871263451e-02 8.605920108700737536e-02
4.091800925202072198e-02 8.605920108700737536e-02
4.170489404532881639e-02 8.605920108700737536e-02
4.249177883863690386e-02 8.605920108700737536e-02
4.327866363194499827e-02 8.605920108700737536e-02
4.406554842525308574e-02 8.605920108700737536e-02
4.485243321856118015e-02 8.605920108700737536e-02
4.563931801186926762e-02 8.605920108700737536e-02
4.642620280517736203e-02 8.605920108700737536e-02
4.721308759848544950e-02 8.605920108700737536e-02
4.799997239179354391e-02 8.605920108700737536e-02
4.878685718510163138e-02 8.605920108700737536e-02
4.957374197840972579e-02 8.605920108700737536e-02
5.036062677171781327e-02 8.605920108700737536e-02
5.114751156502590074e-02 8.605920108700737536e-02
5.193439635833399515e-02 8.605920108700737536e-02
5.272128115164208262e-02 8.605920108700737536e-02
5.350816594495017703e-02 8.605920108700737536e-02
5.429505073825826450e-02 8.605920108700737536e-02
5.508193553156635891e-02 8.605920108700737536e-02
5.586882032487444638e-02 8.605920108700737536e-02
5.665570511818254079e-02 8.605920108700737536e-02
5.744258991149062826e-02 8.605920108700737536e-02
5.822947470479872267e-02 8.605920108700737536e-02
5.901635949810681014e-02 8.605920108700737536e-02
5.980324429141490455e-02 8.605920108700737536e-02
6.059012908472299203e-02 8.605920108700737536e-02
6.137701387803108644e-02 8.605920108700737536e-02
6.216389867133917391e-02 8.605920108700737536e-02
6.295078346464726138e-02 8.605920108700737536e-02
6.373766825795536273e-02 8.605920108700737536e-02
6.452455305126345020e-02 8.605920108700737536e-02
6.531143784457153767e-02 8.605920108700737536e-02
6.609832263787962514e-02 8.605920108700737536e-02
6.688520743118772649e-02 8.605920108700737536e-02
6.767209222449581396e-02 8.605920108700737536e-02
6.845897701780390143e-02 8.605920108700737536e-02
6.924586181111198890e-02 8.605920108700737536e-02
7.003274660442009025e-02 8.605920108700737536e-02
7.081963139772817772e-02 8.605920108700737536e-02
7.160651619103626520e-02 8.605920108700737536e-02
7.239340098434435267e-02 8.605920108700737536e-02
7.318028577765245402e-02 8.605920108700737536e-02
7.396717057096054149e-02 8.605920108700737536e-02
7.475405536426862896e-02 8.605920108700737536e-02
7.554094015757671643e-02 8.605920108700737536e-02
7.632782495088480390e-02 8.605920108700737536e-02
7.711470974419290525e-02 8.605920108700737536e-02
7.790159453750099272e-02 8.605920108700737536e-02
7.868847933080908019e-02 8.605920108700737536e-02
7.947536412411716766e-02 8.605920108700737536e-02
8.026224891742526901e-02 8.605920108700737536e-02
8.104913371073335648e-02 8.605920108700737536e-02
8.183601850404144396e-02 8.605920108700737536e-02
8.262290329734953143e-02 8.605920108700737536e-02
8.340978809065763278e-02 8.605920108700737536e-02
8.419667288396572025e-02 8.605920108700737536e-02
8.498355767727380772e-02 8.605920108700737536e-02
8.577044247058189519e-02 8.605920108700737536e-02
8.655732726388999654e-02 8.605920108700737536e-02
8.734421205719808401e-02 8.605920108700737536e-02
8.813109685050617148e-02 8.605920108700737536e-02
8.891798164381425895e-02 8.605920108700737536e-02
8.970486643712236030e-02 8.605920108700737536e-02
9.049175123043044777e-02 8.605920108700737536e-02
9.127863602373853524e-02 8.605920108700737536e-02
9.206552081704662271e-02 8.605920108700737536e-02
9.285240561035472406e-02 8.605920108700737536e-02
9.363929040366281153e-02 8.605920108700737536e-02
9.442617519697089901e-02 8.605920108700737536e-02
9.521305999027898648e-02 8.605920108700737536e-02
9.599994478358708783e-02 8.605920108700737536e-02
9.678682957689517530e-02 8.605920108700737536e-02
9.757371437020326277e-02 8.605920108700737536e-02
9.836059916351135024e-02 8.605920108700737536e-02
9.914748395681945159e-02 8.605920108700737536e-02
9.993436875012753906e-02 8.605920108700737536e-02
1.007212535434356265e-01 8.605920108700737536e-02
1.015081383367437140e-01 8.605920108700737536e-02
1.022950231300518015e-01 8.605920108700737536e-02
1.030819079233599028e-01 8.605920108700737536e-02
1.038687927166679903e-01 8.605920108700737536e-02
1.046556775099760778e-01 8.605920108700737536e-02
1.054425623032841652e-01 8.605920108700737536e-02
1.062294470965922666e-01 8.605920108700737536e-02
1.070163318899003541e-01 8.605920108700737536e-02
1.078032166832084415e-01 8.605920108700737536e-02
1.085901014765165290e-01 8.605920108700737536e-02
1.093769862698246303e-01 8.605920108700737536e-02
1.101638710631327178e-01 8.605920108700737536e-02
1.109507558564408053e-01 8.605920108700737536e-02
1.117376406497488928e-01 8.605920108700737536e-02
1.125245254430569941e-01 8.605920108700737536e-02
1.133114102363650816e-01 8.605920108700737536e-02
1.140982950296731691e-01 8.605920108700737536e-02
1.148851798229812565e-01 8.605920108700737536e-02
1.156720646162893579e-01 8.605920108700737536e-02
1.164589494095974453e-01 8.605920108700737536e-02
1.172458342029055328e-01 8.605920108700737536e-02
1.180327189962136203e-01 8.605920108700737536e-02
1.188196037895217216e-01 8.605920108700737536e-02
1.196064885828298091e-01 8.605920108700737536e-02
1.203933733761378966e-01 8.605920108700737536e-02
1.211802581694459841e-01 8.605920108700737536e-02
1.219671429627540854e-01 8.605920108700737536e-02
1.227540277560621729e-01 8.605920108700737536e-02
1.235409125493702603e-01 8.605920108700737536e-02
1.243277973426783478e-01 8.605920108700737536e-02
1.251146821359864492e-01 8.605920108700737536e-02
1.259015669292945228e-01 8.605920108700737536e-02
1.266884517226026241e-01 8.605920108700737536e-02
1.274753365159107255e-01 8.605920108700737536e-02
1.282622213092187990e-01 8.605920108700737536e-02
1.290491061025269004e-01 8.605920108700737536e-02
1.298359908958349740e-01 8.605920108700737536e-02
1.306228756891430753e-01 8.605920108700737536e-02
1.314097604824511767e-01 8.605920108700737536e-02
1.321966452757592503e-01 8.605920108700737536e-02
1.329835300690673516e-01 8.605920108700737536e-02
1.337704148623754530e-01 8.605920108700737536e-02
1.345572996556835266e-01 8.605920108700737536e-02
1.353441844489916279e-01 8.605920108700737536e-02
1.361310692422997015e-01 8.605920108700737536e-02
1.369179540356078029e-01 8.605920108700737536e-02
1.377048388289159042e-01 8.605920108700737536e-02
1.384917236222239778e-01 8.605920108700737536e-02
1.392786084155320792e-01 8.605920108700737536e-02
1.400654932088401805e-01 8.605920108700737536e-02
1.408523780021482541e-01 8.605920108700737536e-02
1.416392627954563554e-01 8.605920108700737536e-02
1.424261475887644290e-01 8.605920108700737536e-02
1.432130323820725304e-01 8.605920108700737536e-02
1.439999171753806317e-01 8.605920108700737536e-02
1.447868019686887053e-01 8.605920108700737536e-02
1.455736867619968067e-01 8.605920108700737536e-02
1.463605715553049080e-01 8.605920108700737536e-02
1.471474563486129816e-01 8.605920108700737536e-02
1.479343411419210830e-01 8.605920108700737536e-02
1.487212259352291566e-01 8.605920108700737536e-02
1.495081107285372579e-01 8.605920108700737536e-02
1.502949955218453593e-01 8.605920108700737536e-02
1.510818803151534329e-01 8.605920108700737536e-02
1.518687651084615342e-01 8.605920108700737536e-02
1.526556499017696078e-01 8.605920108700737536e-02
1.534425346950777092e-01 8.605920108700737536e-02
1.542294194883858105e-01 8.605920108700737536e-02
1.550163042816938841e-01 8.605920108700737536e-02
1.558031890750019854e-01 8.605920108700737536e-02
1.565900738683100868e-01 8.605920108700737536e-02
1.573769586616181604e-01 8.605920108700737536e-02
1.581638434549262617e-01 8.605920108700737536e-02
1.589507282482343353e-01 8.605920108700737536e-02
1.597376130415424367e-01 8.605920108700737536e-02
1.605244978348505380e-01 8.605920108700737536e-02
1.613113826281586116e-01 8.605920108700737536e-02
1.620982674214667130e-01 8.605920108700737536e-02
1.628851522147748143e-01 8.605920108700737536e-02
1.636720370080828879e-01 8.605920108700737536e-02
1.644589218013909893e-01 8.605920108700737536e-02
1.652458065946990629e-01 8.605920108700737536e-02
1.660326913880071642e-01 8.605920108700737536e-02
1.668195761813152656e-01 8.605920108700737536e-02
1.676064609746233391e-01 8.605920108700737536e-02
1.683933457679314405e-01 8.605920108700737536e-02
1.691802305612395418e-01 8.605920108700737536e-02
1.699671153545476154e-01 8.605920108700737536e-02
1.707540001478557168e-01 8.605920108700737536e-02
1.715408849411637904e-01 8.605920108700737536e-02
1.723277697344718917e-01 8.605920108700737536e-02
1.731146545277799931e-01 8.605920108700737536e-02
1.739015393210880667e-01 8.605920108700737536e-02
1.746884241143961680e-01 8.605920108700737536e-02
1.754753089077042694e-01 8.605920108700737536e-02
1.762621937010123430e-01 8.605920108700737536e-02
1.770490784943204443e-01 8.605920108700737536e-02
1.778359632876285179e-01 8.605920108700737536e-02
1.786228480809366193e-01 8.605920108700737536e-02
1.794097328742447206e-01 8.605920108700737536e-02
1.801966176675527942e-01 8.605920108700737536e-02
1.809835024608608955e-01 8.605920108700737536e-02
1.817703872541689691e-01 8.605920108700737536e-02
1.825572720474770705e-01 8.605920108700737536e-02
1.833441568407851718e-01 8.605920108700737536e-02
1.841310416340932454e-01 8.605920108700737536e-02
1.849179264274013468e-01 8.605920108700737536e-02
1.857048112207094481e-01 8.605920108700737536e-02
1.864916960140175217e-01 8.605920108700737536e-02
1.872785808073256231e-01 8.605920108700737536e-02
1.880654656006336967e-01 8.605920108700737536e-02
1.888523503939417980e-01 8.605920108700737536e-02
1.896392351872498994e-01 8.605920108700737536e-02
1.904261199805579730e-01 8.605920108700737536e-02
1.912130047738660743e-01 8.605920108700737536e-02
1.919998895671741757e-01 8.605920108700737536e-02
1.927867743604822492e-01 8.605920108700737536e-02
1.935736591537903506e-01 8.605920108700737536e-02
1.943605439470984242e-01 8.605920108700737536e-02
1.951474287404065255e-01 8.605920108700737536e-02
1.959343135337146269e-01 8.605920108700737536e-02
1.967211983270227005e-01 8.605920108700737536e-02
1.975080831203308018e-01 8.605920108700737536e-02
1.982949679136389032e-01 8.605920108700737536e-02
1.990818527069469768e-01 8.605920108700737536e-02
1.998687375002550781e-01 8.605920108700737536e-02
2.006556222935631517e-01 8.605920108700737536e-02
2.014425070868712531e-01 8.605920108700737536e-02
2.022293918801793544e-01 8.605920108700737536e-02
2.030162766734874280e-01 8.605920108700737536e-02
2.038031614667955294e-01 8.605920108700737536e-02
2.045900462601036029e-01 8.605920108700737536e-02
2.053769310534117043e-01 8.605920108700737536e-02
2.061638158467198056e-01 8.605920108700737536e-02
2.069507006400278792e-01 8.605920108700737536e-02
2.077375854333359806e-01 8.605920108700737536e-02
2.085244702266440819e-01 8.605920108700737536e-02
2.093113550199521555e-01 8.605920108700737536e-02
2.100982398132602569e-01 8.605920108700737536e-02
2.108851246065683305e-01 8.605920108700737536e-02
2.116720093998764318e-01 8.605920108700737536e-02
2.124588941931845332e-01 8.605920108700737536e-02
2.132457789864926068e-01 8.605920108700737536e-02
2.140326637798007081e-01 8.605920108700737536e-02
2.148195485731088095e-01 8.605920108700737536e-02
2.156064333664168831e-01 8.605920108700737536e-02
2.163933181597249844e-01 8.605920108700737536e-02
2.171802029530330580e-01 8.605920108700737536e-02
2.179670877463411593e-01 8.605920108700737536e-02
2.187539725396492607e-01 8.605920108700737536e-02
2.195408573329573343e-01 8.605920108700737536e-02
2.203277421262654356e-01 8.605920108700737536e-02
2.211146269195735370e-01 8.605920108700737536e-02
2.219015117128816106e-01 8.605920108700737536e-02
2.226883965061897119e-01 8.605920108700737536e-02
2.234752812994977855e-01 8.605920108700737536e-02
2.242621660928058869e-01 8.605920108700737536e-02
2.250490508861139882e-01 8.605920108700737536e-02
2.258359356794220618e-01 8.605920108700737536e-02
2.266228204727301632e-01 8.605920108700737536e-02
2.274097052660382368e-01 8.605920108700737536e-02
2.281965900593463381e-01 8.605920108700737536e-02
2.289834748526544395e-01 8.605920108700737536e-02
2.297703596459625131e-01 8.605920108700737536e-02
2.305572444392706144e-01 8.605920108700737536e-02
2.313441292325787157e-01 8.605920108700737536e-02
2.321310140258867893e-01 8.605920108700737536e-02
2.329178988191948907e-01 8.605920108700737536e-02
2.337047836125029643e-01 8.605920108700737536e-02
2.344916684058110656e-01 8.605920108700737536e-02
2.352785531991191670e-01 8.605920108700737536e-02
2.360654379924272406e-01 8.605920108700737536e-02
2.368523227857353419e-01 8.605920108700737536e-02
2.376392075790434433e-01 8.605920108700737536e-02
2.384260923723515169e-01 8.605920108700737536e-02
2.392129771656596182e-01 8.605920108700737536e-02
2.399998619589676918e-01 8.605920108700737536e-02
2.407867467522757932e-01 8.605920108700737536e-02
2.415736315455838945e-01 8.605920108700737536e-02
2.423605163388919681e-01 8.605920108700737536e-02
2.431474011322000695e-01 8.605920108700737536e-02
2.439342859255081708e-01 8.605920108700737536e-02
2.447211707188162444e-01 8.605920108700737536e-02
2.455080555121243457e-01 8.605920108700737536e-02
2.462949403054324193e-01 8.605920108700737536e-02
2.470818250987405207e-01 8.605920108700737536e-02
2.478687098920486220e-01 8.605920108700781945e-02
2.486555946853566956e-01 8.605920108700826354e-02
2.494424794786647970e-01 8.605920108701070603e-02
2.502293642719728983e-01 8.605920108701337057e-02
2.510162490652809719e-01 8.605920108702491689e-02
2.518031338585890455e-01 8.605920108703868365e-02
2.525900186518971746e-01 8.605920108709264049e-02
2.533769034452052482e-01 8.605920108715836570e-02
2.541637882385133218e-01 8.605920108739018026e-02
2.549506730318214509e-01 8.605920108767772803e-02
2.557375578251295245e-01 8.605920108859654860e-02
2.565244426184375981e-01 8.605920108975628757e-02
2.573113274117457272e-01 8.605920109311293587e-02
2.580982122050538008e-01 8.605920109743503410e-02
2.588850969983618744e-01 8.605920110876219553e-02
2.596719817916699480e-01 8.605920112367604347e-02
2.604588665849780771e-01 8.605920115908083368e-02
2.612457513782861507e-01 8.605920120684706909e-02
2.620326361715942243e-01 8.605920130979871630e-02
2.628195209649023534e-01 8.605920145229628559e-02
2.636064057582104270e-01 8.605920173255321437e-02
2.643932905515185006e-01 8.605920213045870071e-02
2.651801753448266297e-01 8.605920285075052689e-02
2.659670601381347033e-01 8.605920389745702614e-02
2.667539449314427769e-01 8.605920566346747513e-02
2.675408297247509060e-01 8.605920827783530846e-02
2.683277145180589796e-01 8.605921245446745971e-02
2.691145993113670531e-01 8.605921870934651885e-02
2.699014841046751823e-01 8.605922833065227096e-02
2.706883688979832558e-01 8.605924278859666821e-02
2.714752536912913294e-01 8.605926451344969585e-02
2.722621384845994030e-01 8.605929702744075094e-02
2.730490232779075321e-01 8.605934521374303259e-02
2.738359080712156057e-01 8.605941666966532289e-02
2.746227928645236793e-01 8.605952155875540299e-02
2.754096776578318084e-01 8.605967530345304262e-02
2.761965624511398820e-01 8.605989893219168074e-02
2.769834472444479556e-01 8.606022280569081140e-02
2.777703320377560847e-01 8.606068913318520863e-02
2.785572168310641583e-01 8.606135670396652948e-02
2.793441016243722319e-01 8.606230732461361832e-02
2.801309864176803610e-01 8.606365299339580055e-02
2.809178712109884346e-01 8.606554752468786873e-02
2.817047560042965082e-01 8.606819964336298590e-02
2.824916407976045818e-01 8.607189128200132266e-02
2.832785255909127109e-01 8.607700127796524825e-02
2.840654103842207845e-01 8.608403400847164377e-02
2.848522951775288581e-01 8.609365846414163137e-02
2.856391799708369872e-01 8.610675407936985160e-02
2.864260647641450608e-01 8.612447097770292714e-02
2.872129495574531344e-01 8.614830154519470540e-02
2.879998343507612635e-01 8.618017074397044119e-02
2.887867191440693371e-01 8.622254172261567540e-02
2.895736039373774107e-01 8.627854828613301663e-02
2.903604887306855398e-01 8.635214315743011682e-02
2.911473735239936134e-01 8.644828314346830744e-02
2.919342583173016870e-01 8.657313028299640223e-02
2.927211431106098161e-01 8.673429514229247239e-02
2.935080279039178897e-01 8.694109875888456074e-02
2.942949126972259632e-01 8.720487239549790104e-02
2.950817974905340368e-01 8.753927992200782882e-02
2.958686822838421659e-01 8.796065982919265558e-02
2.966555670771502395e-01 8.848838919970125616e-02
2.974424518704583131e-01 8.914524486169983497e-02
2.982293366637664422e-01 8.995776543690392479e-02
2.990162214570745158e-01 9.095657332005591122e-02
2.998031062503825894e-01 9.217667948616270479e-02
3.005899910436907185e-01 9.365768276001573689e-02
3.013768758369987921e-01 9.544391399144558363e-02
3.021637606303068657e-01 9.758442782695797568e-02
3.029506454236149948e-01 1.001328538836643300e-01
3.037375302169230684e-01 1.031470654681756471e-01
3.045244150102311420e-01 1.066886121772145923e-01
3.053112998035392156e-01 1.108219414227917810e-01
3.060981845968473447e-01 1.156133308913647184e-01
3.068850693901554183e-01 1.211295347990151150e-01
3.076719541834634919e-01 1.274361682699889364e-01
3.084588389767716210e-01 1.345958012181940333e-01
3.092457237700796946e-01 1.426657975071587980e-01
3.100326085633877682e-01 1.516958822162097764e-01
3.108194933566958973e-01 1.617256831482913881e-01
3.116063781500039709e-01 1.727819374791299545e-01
3.123932629433120445e-01 1.848759216455015952e-01
3.131801477366201736e-01 1.980008354408631099e-01
3.139670325299282472e-01 2.121293292129728947e-01
3.147539173232363208e-01 2.272114546434007565e-01
3.155408021165444499e-01 2.431731192460406810e-01
3.163276869098525235e-01 2.599149987919902038e-01
3.171145717031605971e-01 2.773116443531360442e-01
3.179014564964686707e-01 2.952126729107062975e-01
3.186883412897767998e-01 3.134429963184552914e-01
3.194752260830848734e-01 3.318052941050406712e-01
3.202621108763929469e-01 3.500826465506330365e-01
3.210489956697010761e-01 3.680425644389404560e-01
3.218358804630091496e-01 3.854397366154076465e-01
3.226227652563172232e-01 4.020243642470875400e-01
3.234096500496253523e-01 4.175434888091038577e-01
3.241965348429334259e-01 4.317490973813389310e-01
3.249834196362414995e-01 4.444042588617451717e-01
3.257703044295496286e-01 4.552872453036445055e-01
3.265571892228577022e-01 4.641979428848592715e-01
3.273440740161657758e-01 4.709605994659114003e-01
3.281309588094738494e-01 4.754310598266144883e-01
3.289178436027819785e-01 4.774953918869735414e-01
3.297047283960900521e-01 4.770786788934227030e-01
3.304916131893981257e-01 4.741369599147744474e-01
3.312784979827062548e-01 4.686669378811894049e-01
3.320653827760143284e-01 4.606938903281005970e-01
3.328522675693224020e-01 4.502729515900394386e-01
3.336391523626305311e-01 4.374947910875806034e-01
3.344260371559386047e-01 4.224683952959604749e-01
3.352129219492466783e-01 4.053304094429546200e-01
3.359998067425548074e-01 3.862313997178807856e-01
3.367866915358628810e-01 3.653393335119856644e-01
3.375735763291709546e-01 3.428291386972874832e-01
3.383604611224790837e-01 3.188781243629099649e-01
3.391473459157871573e-01 2.936742234896809745e-01
3.399342307090952309e-01 2.673976758954703659e-01
3.407211155024033045e-01 2.402345828556398111e-01
3.415080002957114336e-01 2.123754417386694016e-01
3.422948850890195072e-01 1.839993933391497194e-01
3.430817698823275808e-01 1.552907072269755773e-01
3.438686546756357099e-01 1.264343856542293754e-01
3.446555394689437835e-01 9.761726257845881882e-02
3.454424242622518570e-01 6.901921147644074495e-02
3.462293090555599862e-01 4.084135360835894346e-02
3.470161938488680597e-01 1.327382000160093334e-02
3.478030786421761333e-01 -1.348849588223455243e-02
3.485899634354842624e-01 -3.924154205421737096e-02
3.493768482287923360e-01 -6.378822700618913544e-02
3.501637330221004096e-01 -8.693036020671163211e-02
3.509506178154085387e-01 -1.084719491709059680e-01
3.517375026087166123e-01 -1.282338531041821161e-01
3.525243874020246859e-01 -1.460411441345219608e-01
3.533112721953327595e-01 -1.617410580260479902e-01
3.540981569886408886e-01 -1.752092219776081317e-01
3.548850417819489622e-01 -1.863364663434194934e-01
3.556719265752570358e-01 -1.950636270369251468e-01
3.564588113685651649e-01 -2.013524214138824320e-01
3.572456961618732385e-01 -2.052164040947409562e-01
3.580325809551813121e-01 -2.067145559955108070e-01
3.588194657484894412e-01 -2.059463387230046072e-01
3.596063505417975148e-01 -2.030537094508492180e-01
3.603932353351055884e-01 -1.982355913926694413e-01
3.611801201284137175e-01 -1.917152694447898931e-01
3.619670049217217911e-01 -1.837678657682273453e-01
3.627538897150298647e-01 -1.746921315245120176e-01
3.635407745083379383e-01 -1.648163083331791734e-01
3.643276593016460674e-01 -1.544858558451461805e-01
3.651145440949541410e-01 -1.440542016301079586e-01
3.659014288882622146e-01 -1.338767881337723509e-01
3.666883136815703437e-01 -1.243040206118152247e-01
3.674751984748784173e-01 -1.156649649512317968e-01
3.682620832681864909e-01 -1.082588302399186686e-01
3.690489680614946200e-01 -1.023622040032655667e-01
3.698358528548026936e-01 -9.820020284306330005e-02
3.706227376481107672e-01 -9.596057656959300353e-02
3.714096224414188963e-01 -9.577035395693256348e-02
3.721965072347269698e-01 -9.770893943703995443e-02
3.729833920280350434e-01 -1.018061898090135697e-01
3.737702768213431725e-01 -1.080318819326617774e-01
3.745571616146512461e-01 -1.163036806472808049e-01
3.753440464079593197e-01 -1.264949235198857824e-01
3.761309312012673933e-01 -1.384318274943753257e-01
3.769178159945755224e-01 -1.519055781476073008e-01
3.777047007878835960e-01 -1.666728563047210621e-01
3.784915855811916696e-01 -1.824662558639761345e-01
3.792784703744997987e-01 -1.989972145254975677e-01
3.800653551678078723e-01 -2.159780858421439520e-01
3.808522399611159459e-01 -2.331014180514207057e-01
3.816391247544240750e-01 -2.500759012952539218e-01
3.824260095477321486e-01 -2.666056006592674166e-01
3.832128943410402222e-01 -2.824173401695023733e-01
3.839997791343483513e-01 -2.972502620712595967e-01
3.847866639276564249e-01 -3.108706407470573918e-01
3.855735487209644985e-01 -3.230599079421466735e-01
3.863604335142725721e-01 -3.336293979935132104e-01
3.871473183075807012e-01 -3.424235075218069468e-01
3.879342031008887748e-01 -3.493003709386739430e-01
3.887210878941968484e-01 -3.541635489513211832e-01
3.895079726875049775e-01 -3.569354688332567749e-01
3.902948574808130511e-01 -3.575692389245470615e-01
3.910817422741211247e-01 -3.560498392403698142e-01
3.918686270674292538e-01 -3.523871609902419211e-01
3.926555118607373274e-01 -3.466246155937116047e-01
3.934423966540454010e-01 -3.388319910290392700e-01
3.942292814473535301e-01 -3.290964764764141570e-01
3.950161662406616037e-01 -3.175417120548017502e-01
3.958030510339696773e-01 -3.043094717672825134e-01
3.965899358272778064e-01 -2.895653417879973102e-01
3.973768206205858800e-01 -2.734972550977736727e-01
3.981637054138939535e-01 -2.563008378403972554e-01
3.989505902072020271e-01 -2.381860034622896860e-01
3.997374750005101562e-01 -2.193806161234408414e-01
4.005243597938182298e-01 -2.001066785263490022e-01
4.013112445871263034e-01 -1.805880250789785313e-01
4.020981293804344325e-01 -1.610503218947600956e-01
4.028850141737425061e-01 -1.416990863269964596e-01
4.036718989670505797e-01 -1.227295781783799278e-01
4.044587837603587088e-01 -1.043209382435007493e-01
4.052456685536667824e-01 -8.661603954871910371e-02
4.060325533469748560e-01 -6.974566586431862891e-02
4.068194381402829851e-01 -5.379224393627646261e-02
4.076063229335910587e-01 -3.881585370388251910e-02
4.083932077268991323e-01 -2.484433709022226822e-02
4.091800925202072059e-01 -1.187219897889746356e-02
4.099669773135153350e-01 1.481849722120287538e-04
4.107538621068234086e-01 1.129008298175282476e-02
4.115407469001314822e-01 2.164471398193912322e-02
4.123276316934396113e-01 3.134286174305467298e-02
4.131145164867476849e-01 4.052007246959510312e-02
4.139014012800557585e-01 4.932288259885297954e-02
4.146882860733638876e-01 5.791871001043524814e-02
4.154751708666719612e-01 6.645519016491396869e-02
4.162620556599800348e-01 7.508288925160733207e-02
4.170489404532881639e-01 8.394724468452818833e-02
4.178358252465962375e-01 9.316841634225636604e-02
4.186227100399043111e-01 1.028335934049811051e-01
4.194095948332124402e-01 1.130230045721201115e-01
4.201964796265205138e-01 1.237729176119028995e-01
4.209833644198285874e-01 1.351001842146186682e-01
4.217702492131366609e-01 1.469934478063770200e-01
4.225571340064447901e-01 1.594025196574051506e-01
4.233440187997528636e-01 1.722446066806329057e-01
4.241309035930609372e-01 1.854259255561927500e-01
4.249177883863690663e-01 1.988252173822253610e-01
4.257046731796771399e-01 2.122977774269043660e-01
4.264915579729852135e-01 2.256985346173099316e-01
4.272784427662933426e-01 2.388758237408443730e-01
4.280653275596014162e-01 2.516677220342993238e-01
4.288522123529094898e-01 2.639210989207041447e-01
4.296390971462176189e-01 2.754982101490037749e-01
4.304259819395256925e-01 2.862646085379820793e-01
4.312128667328337661e-01 2.961111244418563881e-01
4.319997515261418397e-01 3.049395784476405247e-01
4.327866363194499688e-01 3.126920886626041174e-01
4.335735211127580424e-01 3.193309219541440314e-01
4.343604059060661160e-01 3.248329988333868990e-01
4.351472906993742451e-01 3.292019827112648844e-01
4.359341754926823187e-01 3.324763394025673779e-01
4.367210602859903923e-01 3.347080893425331549e-01
4.375079450792985214e-01 3.359723324552748025e-01
4.382948298726065950e-01 3.363643174250323664e-01
4.390817146659146686e-01 3.359814909826055462e-01
4.398685994592227977e-01 3.349403495956417842e-01
4.406554842525308713e-01 3.333705780111451134e-01
4.414423690458389449e-01 3.313956331775345099e-01
4.422292538391470740e-01 3.291448335007207682e-01
4.430161386324551476e-01 3.267420022702156590e-01
4.438030234257632212e-01 3.243003388838283652e-01
4.445899082190712948e-01 3.219304783517142887e-01
4.453767930123794239e-01 3.197269366759272202e-01
4.461636778056874975e-01 3.177823981530547570e-01
4.469505625989955711e-01 3.161635368620649977e-01
4.477374473923037002e-01 3.149172444628918210e-01
4.485243321856117737e-01 3.140845511579766214e-01
4.493112169789198473e-01 3.136823086376085978e-01
4.500981017722279764e-01 3.137101505606942897e-01
4.508849865655360500e-01 3.141490271903855103e-01
4.516718713588441236e-01 3.149710966035967896e-01
4.524587561521522527e-01 3.161247047061825910e-01
4.532456409454603263e-01 3.175475735122934573e-01
4.540325257387683999e-01 3.191609396868846371e-01
4.548194105320764735e-01 3.208754160032076808e-01
4.556062953253846026e-01 3.225986845057682295e-01
4.563931801186926762e-01 3.242281696884616871e-01
4.571800649120007498e-01 3.256547019055049397e-01
4.579669497053088789e-01 3.267735076042337372e-01
4.587538344986169525e-01 3.274688229991868926e-01
4.595407192919250261e-01 3.276417359951921959e-01
4.603276040852331552e-01 3.271958988847294414e-01
4.611144888785412288e-01 3.260345976191858508e-01
4.619013736718493024e-01 3.240832817860885839e-01
4.626882584651574315e-01 3.212712475544441393e-01
4.634751432584655051e-01 3.175395140082422074e-01
4.642620280517735787e-01 3.128538282552657535e-01
4.650489128450817078e-01 3.071922098299206816e-01
4.658357976383897814e-01 3.005411041117573845e-01
4.666226824316978550e-01 2.929158974266918847e-01
4.674095672250059286e-01 2.843425999923434588e-01
4.681964520183140577e-01 2.748719500501246582e-01
4.689833368116221313e-01 2.645539531592615567e-01
4.697702216049302049e-01 2.534690211897183687e-01