0.000000000000000000e+00 -3.993412114519606648e-01
7.868847933080908323e-04 -1.235495524547010060e-01
1.573769586616181665e-03 -1.235495524547010060e-01
2.360654379924272388e-03 -1.235495524547010060e-01
3.147539173232363329e-03 -1.235495524547010060e-01
3.934423966540453836e-03 -1.235495524547010060e-01
4.721308759848544777e-03 -1.235495524547010060e-01
5.508193553156635718e-03 -1.235495524547010060e-01
6.295078346464726658e-03 -1.235495524547010060e-01
7.081963139772817599e-03 -1.235495524547010060e-01
7.868847933080907672e-03 -1.235495524547010060e-01
8.655732726388998613e-03 -1.235495524547010060e-01
9.442617519697089554e-03 -1.235495524547010060e-01
1.022950231300518049e-02 -1.235495524547010060e-01
1.101638710631327144e-02 -1.235495524547010060e-01
1.180327189962136238e-02 -1.235495524547010060e-01
1.259015669292945332e-02 -1.235495524547010060e-01
1.337704148623754426e-02 -1.235495524547010060e-01
1.416392627954563520e-02 -1.235495524547010060e-01
1.495081107285372614e-02 -1.235495524547010060e-01
1.573769586616181534e-02 -1.235495524547010060e-01
1.652458065946990629e-02 -1.235495524547010060e-01
1.731146545277799723e-02 -1.235495524547010060e-01
1.809835024608608817e-02 -1.235495524547010060e-01
1.888523503939417911e-02 -1.235495524547010060e-01
1.967211983270227005e-02 -1.235495524547010060e-01
2.045900462601036099e-02 -1.235495524547010060e-01
2.124588941931845193e-02 -1.235495524547010060e-01
2.203277421262654287e-02 -1.235495524547010060e-01
2.281965900593463381e-02 -1.235495524547010060e-01
2.360654379924272475e-02 -1.235495524547010060e-01
2.439342859255081569e-02 -1.235495524547010060e-01
2.518031338585890663e-02 -1.235495524547010060e-01
2.596719817916699757e-02 -1.235495524547010060e-01
2.675408297247508851e-02 -1.235495524547010060e-01
2.754096776578317946e-02 -1.235495524547010060e-01
2.832785255909127040e-02 -1.235495524547010060e-01
2.911473735239936134e-02 -1.235495524547010060e-01
2.990162214570745228e-02 -1.235495524547010060e-01
3.068850693901554322e-02 -1.235495524547010060e-01
3.147539173232363069e-02 -1.235495524547010060e-01
3.226227652563172510e-02 -1.235495524547010060e-01
3.304916131893981257e-02 -1.235495524547010060e-01
3.383604611224790698e-02 -1.235495524547010060e-01
3.462293090555599445e-02 -1.235495524547010060e-01
3.540981569886408886e-02 -1.235495524547010060e-01
3.619670049217217633e-02 -1.235495524547010060e-01
3.698358528548027074e-02 -1.235495524547010060e-01
3.777047007878835821e-02 -1.235495524547010060e-01
3.855735487209645262e-02 -1.235495524547010060e-01
3.934423966540454010e-02 -1.235495524547010060e-01
4.013112445871263451e-02 -1.235495524547010060e-01
4.091800925202072198e-02 -1.235495524547010060e-01
4.170489404532881639e-02 -1.235495524547010060e-01
4.249177883863690386e-02 -1.235495524547010060e-01
4.327866363194499827e-02 -1.235495524547010060e-01
4.406554842525308574e-02 -1.235495524547010060e-01
4.485243321856118015e-02 -1.235495524547010060e-01
4.563931801186926762e-02 -1.235495524547010060e-01
4.642620280517736203e-02 -1.235495524547010060e-01
4.721308759848544950e-02 -1.235495524547010060e-01
4.799997239179354391e-02 -1.235495524547010060e-01
4.878685718510163138e-02 -1.235495524547010060e-01
4.957374197840972579e-02 -1.235495524547010060e-01
5.036062677171781327e-02 -1.235495524547010060e-01
5.114751156502590074e-02 -1.235495524547010060e-01
5.193439635833399515e-02 -1.235495524547010060e-01
5.272128115164208262e-02 -1.235495524547010060e-01
5.350816594495017703e-02 -1.235495524547010060e-01
5.429505073825826450e-02 -1.235495524547010060e-01
5.508193553156635891e-02 -1.235495524547010060e-01
5.586882032487444638e-02 -1.235495524547010060e-01
5.665570511818254079e-02 -1.235495524547010060e-01
5.744258991149062826e-02 -1.235495524547010060e-01
5.822947470479872267e-02 -1.235495524547010060e-01
5.901635949810681014e-02 -1.235495524547010060e-01
5.980324429141490455e-02 -1.235495524547010060e-01
6.059012908472299203e-02 -1.235495524547010060e-01
6.137701387803108644e-02 -1.235495524547010060e-01
6.216389867133917391e-02 -1.235495524547010060e-01
6.295078346464726138e-02 -1.235495524547010060e-01
6.373766825795536273e-02 -1.235495524547010060e-01
6.452455305126345020e-02 -1.235495524547010060e-01
6.531143784457153767e-02 -1.235495524547010060e-01
6.609832263787962514e-02 -1.235495524547010060e-01
6.688520743118772649e-02 -1.235495524547010060e-01
6.767209222449581396e-02 -1.235495524547010060e-01
6.845897701780390143e-02 -1.235495524547010060e-01
6.924586181111198890e-02 -1.235495524547010060e-01
7.003274660442009025e-02 -1.235495524547010060e-01
7.081963139772817772e-02 -1.235495524547010060e-01
7.160651619103626520e-02 -1.235495524547010060e-01
7.239340098434435267e-02 -1.235495524547010060e-01
7.318028577765245402e-02 -1.235495524547010060e-01
7.396717057096054149e-02 -1.235495524547010060e-01
7.475405536426862896e-02 -1.235495524547010060e-01
7.554094015757671643e-02 -1.235495524547010060e-01
7.632782495088480390e-02 -1.235495524547010060e-01
7.711470974419290525e-02 -1.235495524547010060e-01
7.790159453750099272e-02 -1.235495524547010060e-01
7.868847933080908019e-02 -1.235495524547010060e-01
7.947536412411716766e-02 -1.235495524547010060e-01
8.026224891742526901e-02 -1.235495524547010060e-01
8.104913371073335648e-02 -1.235495524547010060e-01
8.183601850404144396e-02 -1.235495524547010060e-01
8.262290329734953143e-02 -1.235495524547010060e-01
8.340978809065763278e-02 -1.235495524547010060e-01
8.419667288396572025e-02 -1.235495524547010060e-01
8.498355767727380772e-02 -1.235495524547010060e-01
8.577044247058189519e-02 -1.235495524547010060e-01
8.655732726388999654e-02 -1.235495524547010060e-01
8.734421205719808401e-02 -1.235495524547010060e-01
8.813109685050617148e-02 -1.235495524547010060e-01
8.891798164381425895e-02 -1.235495524547010060e-01
8.970486643712236030e-02 -1.235495524547010060e-01
9.049175123043044777e-02 -1.235495524547010060e-01
9.127863602373853524e-02 -1.235495524547010060e-01
9.206552081704662271e-02 -1.235495524547010060e-01
9.285240561035472406e-02 -1.235495524547010060e-01
9.363929040366281153e-02 -1.235495524547010060e-01
9.442617519697089901e-02 -1.235495524547010060e-01
9.521305999027898648e-02 -1.235495524547010060e-01
9.599994478358708783e-02 -1.235495524547010060e-01
9.678682957689517530e-02 -1.235495524547010060e-01
9.757371437020326277e-02 -1.235495524547010060e-01
9.836059916351135024e-02 -1.235495524547010060e-01
9.914748395681945159e-02 -1.235495524547010060e-01
9.993436875012753906e-02 -1.235495524547010060e-01
1.007212535434356265e-01 -1.235495524547010060e-01
1.015081383367437140e-01 -1.235495524547010060e-01
1.022950231300518015e-01 -1.235495524547010060e-01
1.030819079233599028e-01 -1.235495524547010060e-01
1.038687927166679903e-01 -1.235495524547010060e-01
1.046556775099760778e-01 -1.235495524547010060e-01
1.054425623032841652e-01 -1.235495524547010060e-01
1.062294470965922666e-01 -1.235495524547010060e-01
1.070163318899003541e-01 -1.235495524547010060e-01
1.078032166832084415e-01 -1.235495524547010060e-01
1.085901014765165290e-01 -1.235495524547010060e-01
1.093769862698246303e-01 -1.235495524547010060e-01
1.101638710631327178e-01 -1.235495524547010060e-01
1.109507558564408053e-01 -1.235495524547010060e-01
1.117376406497488928e-01 -1.235495524547010060e-01
1.125245254430569941e-01 -1.235495524547010060e-01
1.133114102363650816e-01 -1.235495524547010060e-01
1.140982950296731691e-01 -1.235495524547010060e-01
1.148851798229812565e-01 -1.235495524547010060e-01
1.156720646162893579e-01 -1.235495524547010060e-01
1.164589494095974453e-01 -1.235495524547010060e-01
1.172458342029055328e-01 -1.235495524547010060e-01
1.180327189962136203e-01 -1.235495524547010060e-01
1.188196037895217216e-01 -1.235495524547010060e-01
1.196064885828298091e-01 -1.235495524547010060e-01
1.203933733761378966e-01 -1.235495524547010060e-01
1.211802581694459841e-01 -1.235495524547010060e-01
1.219671429627540854e-01 -1.235495524547010060e-01
1.227540277560621729e-01 -1.235495524547010060e-01
1.235409125493702603e-01 -1.235495524547010060e-01
1.243277973426783478e-01 -1.235495524547010060e-01
1.251146821359864492e-01 -1.235495524547010060e-01
1.259015669292945228e-01 -1.235495524547010060e-01
1.266884517226026241e-01 -1.235495524547010060e-01
1.274753365159107255e-01 -1.235495524547010060e-01
1.282622213092187990e-01 -1.235495524547010060e-01
1.290491061025269004e-01 -1.235495524547010060e-01
1.298359908958349740e-01 -1.235495524547010060e-01
1.306228756891430753e-01 -1.235495524547010060e-01
1.314097604824511767e-01 -1.235495524547010060e-01
1.321966452757592503e-01 -1.235495524547010060e-01
1.329835300690673516e-01 -1.235495524547010060e-01
1.337704148623754530e-01 -1.235495524547010060e-01
1.345572996556835266e-01 -1.235495524547010060e-01
1.353441844489916279e-01 -1.235495524547010060e-01
1.361310692422997015e-01 -1.235495524547010060e-01
1.369179540356078029e-01 -1.235495524547010060e-01
1.377048388289159042e-01 -1.235495524547010060e-01
1.384917236222239778e-01 -1.235495524547010060e-01
1.392786084155320792e-01 -1.235495524547010060e-01
1.400654932088401805e-01 -1.235495524547010060e-01
1.408523780021482541e-01 -1.235495524547010060e-01
1.416392627954563554e-01 -1.235495524547010060e-01
1.424261475887644290e-01 -1.235495524547010060e-01
1.432130323820725304e-01 -1.235495524547010060e-01
1.439999171753806317e-01 -1.235495524547010060e-01
1.447868019686887053e-01 -1.235495524547010060e-01
1.455736867619968067e-01 -1.235495524547010060e-01
1.463605715553049080e-01 -1.235495524547010060e-01
1.471474563486129816e-01 -1.235495524547010060e-01
1.479343411419210830e-01 -1.235495524547010060e-01
1.487212259352291566e-01 -1.235495524547010060e-01
1.495081107285372579e-01 -1.235495524547010060e-01
1.502949955218453593e-01 -1.235495524547010060e-01
1.510818803151534329e-01 -1.235495524547010060e-01
1.518687651084615342e-01 -1.235495524547010060e-01
1.526556499017696078e-01 -1.235495524547010060e-01
1.534425346950777092e-01 -1.235495524547010060e-01
1.542294194883858105e-01 -1.235495524547010060e-01
1.550163042816938841e-01 -1.235495524547010060e-01
1.558031890750019854e-01 -1.235495524547010060e-01
1.565900738683100868e-01 -1.235495524547010060e-01
1.573769586616181604e-01 -1.235495524547010060e-01
1.581638434549262617e-01 -1.235495524547010060e-01
1.589507282482343353e-01 -1.235495524547010060e-01
1.597376130415424367e-01 -1.235495524547010060e-01
1.605244978348505380e-01 -1.235495524547010060e-01
1.613113826281586116e-01 -1.235495524547010060e-01
1.620982674214667130e-01 -1.235495524547010060e-01
1.628851522147748143e-01 -1.235495524547010060e-01
1.636720370080828879e-01 -1.235495524547010060e-01
1.644589218013909893e-01 -1.235495524547010060e-01
1.652458065946990629e-01 -1.235495524547010060e-01
1.660326913880071642e-01 -1.235495524547010060e-01
1.668195761813152656e-01 -1.235495524547010060e-01
1.676064609746233391e-01 -1.235495524547010060e-01
1.683933457679314405e-01 -1.235495524547010060e-01
1.691802305612395418e-01 -1.235495524547010060e-01
1.699671153545476154e-01 -1.235495524547010060e-01
1.707540001478557168e-01 -1.235495524547010060e-01
1.715408849411637904e-01 -1.235495524547010060e-01
1.723277697344718917e-01 -1.235495524547010060e-01
1.731146545277799931e-01 -1.235495524547010060e-01
1.739015393210880667e-01 -1.235495524547010060e-01
1.746884241143961680e-01 -1.235495524547010060e-01
1.754753089077042694e-01 -1.235495524547010060e-01
1.762621937010123430e-01 -1.235495524547010060e-01
1.770490784943204443e-01 -1.235495524547010060e-01
1.778359632876285179e-01 -1.235495524547010060e-01
1.786228480809366193e-01 -1.235495524547010060e-01
1.794097328742447206e-01 -1.235495524547010060e-01
1.801966176675527942e-01 -1.235495524547010060e-01
1.809835024608608955e-01 -1.235495524547010060e-01
1.817703872541689691e-01 -1.235495524547010060e-01
1.825572720474770705e-01 -1.235495524547010060e-01
1.833441568407851718e-01 -1.235495524547010060e-01
1.841310416340932454e-01 -1.235495524547010060e-01
1.849179264274013468e-01 -1.235495524547010060e-01
1.857048112207094481e-01 -1.235495524547010060e-01
1.864916960140175217e-01 -1.235495524547010060e-01
1.872785808073256231e-01 -1.235495524547010060e-01
1.880654656006336967e-01 -1.235495524547010060e-01
1.888523503939417980e-01 -1.235495524547010060e-01
1.896392351872498994e-01 -1.235495524547010060e-01
1.904261199805579730e-01 -1.235495524547010060e-01
1.912130047738660743e-01 -1.235495524547010060e-01
1.919998895671741757e-01 -1.235495524547010060e-01
1.927867743604822492e-01 -1.235495524547010060e-01
1.935736591537903506e-01 -1.235495524547010060e-01
1.943605439470984242e-01 -1.235495524547010060e-01
1.951474287404065255e-01 -1.235495524547010060e-01
1.959343135337146269e-01 -1.235495524547010060e-01
1.967211983270227005e-01 -1.235495524547010060e-01
1.975080831203308018e-01 -1.235495524547010060e-01
1.982949679136389032e-01 -1.235495524547010060e-01
1.990818527069469768e-01 -1.235495524547010060e-01
1.998687375002550781e-01 -1.235495524547010060e-01
2.006556222935631517e-01 -1.235495524547010060e-01
2.014425070868712531e-01 -1.235495524547010060e-01
2.022293918801793544e-01 -1.235495524547010060e-01
2.030162766734874280e-01 -1.235495524547010060e-01
2.038031614667955294e-01 -1.235495524547010060e-01
2.045900462601036029e-01 -1.235495524547010060e-01
2.053769310534117043e-01 -1.235495524547010060e-01
2.061638158467198056e-01 -1.235495524547010060e-01
2.069507006400278792e-01 -1.235495524547010060e-01
2.077375854333359806e-01 -1.235495524547010060e-01
2.085244702266440819e-01 -1.235495524547010060e-01
2.093113550199521555e-01 -1.235495524547010060e-01
2.100982398132602569e-01 -1.235495524547010060e-01
2.108851246065683305e-01 -1.235495524547010060e-01
2.116720093998764318e-01 -1.235495524547010060e-01
2.124588941931845332e-01 -1.235495524547010060e-01
2.132457789864926068e-01 -1.235495524547010060e-01
2.140326637798007081e-01 -1.235495524547010060e-01
2.148195485731088095e-01 -1.235495524547010060e-01
2.156064333664168831e-01 -1.235495524547010060e-01
2.163933181597249844e-01 -1.235495524547010060e-01
2.171802029530330580e-01 -1.235495524547010060e-01
2.179670877463411593e-01 -1.235495524547010060e-01
2.187539725396492607e-01 -1.235495524547010060e-01
2.195408573329573343e-01 -1.235495524547010060e-01
2.203277421262654356e-01 -1.235495524547010060e-01
2.211146269195735370e-01 -1.235495524547010060e-01
2.219015117128816106e-01 -1.235495524547010060e-01
2.226883965061897119e-01 -1.235495524547010060e-01
2.234752812994977855e-01 -1.235495524547010060e-01
2.242621660928058869e-01 -1.235495524547010060e-01
2.250490508861139882e-01 -1.235495524547010060e-01
2.258359356794220618e-01 -1.235495524547010060e-01
2.266228204727301632e-01 -1.235495524547010060e-01
2.274097052660382368e-01 -1.235495524547010060e-01
2.281965900593463381e-01 -1.235495524547010060e-01
2.289834748526544395e-01 -1.235495524547010060e-01
2.297703596459625131e-01 -1.235495524547010060e-01
2.305572444392706144e-01 -1.235495524547010060e-01
2.313441292325787157e-01 -1.235495524547010060e-01
2.321310140258867893e-01 -1.235495524547010060e-01
2.329178988191948907e-01 -1.235495524547010060e-01
2.337047836125029643e-01 -1.235495524547010060e-01
2.344916684058110656e-01 -1.235495524547010060e-01
2.352785531991191670e-01 -1.235495524547010060e-01
2.360654379924272406e-01 -1.235495524547010060e-01
2.368523227857353419e-01 -1.235495524547010060e-01
2.376392075790434433e-01 -1.235495524547010060e-01
2.384260923723515169e-01 -1.235495524547010060e-01
2.392129771656596182e-01 -1.235495524547010060e-01
2.399998619589676918e-01 -1.235495524547010060e-01
2.407867467522757932e-01 -1.235495524547010060e-01
2.415736315455838945e-01 -1.235495524547010060e-01
2.423605163388919681e-01 -1.235495524547010060e-01
2.431474011322000695e-01 -1.235495524547010060e-01
2.439342859255081708e-01 -1.235495524547010060e-01
2.447211707188162444e-01 -1.235495524547010060e-01
2.455080555121243457e-01 -1.235495524547010060e-01
2.462949403054324193e-01 -1.235495524547010060e-01
2.470818250987405207e-01 -1.235495524547010060e-01
2.478687098920486220e-01 -1.235495524547010060e-01
2.486555946853566956e-01 -1.235495524547010060e-01
2.494424794786647970e-01 -1.235495524547010060e-01
2.502293642719728983e-01 -1.235495524547010060e-01
2.510162490652809719e-01 -1.235495524547011170e-01
2.518031338585890455e-01 -1.235495524547011170e-01
2.525900186518971746e-01 -1.235495524547020052e-01
2.533769034452052482e-01 -1.235495524547025603e-01
2.541637882385133218e-01 -1.235495524547066681e-01
2.549506730318214509e-01 -1.235495524547103319e-01
2.557375578251295245e-01 -1.235495524547317592e-01
2.565244426184375981e-01 -1.235495524547520763e-01
2.573113274117457272e-01 -1.235495524548547719e-01
2.580982122050538008e-01 -1.235495524549554691e-01
2.588850969983618744e-01 -1.235495524553995583e-01
2.596719817916699480e-01 -1.235495524558540836e-01
2.604588665849780771e-01 -1.235495524575972448e-01
2.612457513782861507e-01 -1.235495524594670824e-01
2.620326361715942243e-01 -1.235495524656858857e-01
2.628195209649023534e-01 -1.235495524727042715e-01
2.636064057582104270e-01 -1.235495524929303146e-01
2.643932905515185006e-01 -1.235495525170233755e-01
2.651801753448266297e-01 -1.235495525772710712e-01
2.659670601381347033e-01 -1.235495526531757982e-01
2.667539449314427769e-01 -1.235495528187298131e-01
2.675408297247509060e-01 -1.235495530392732855e-01
2.683277145180589796e-01 -1.235495534635500103e-01
2.691145993113670531e-01 -1.235495540586503127e-01
2.699014841046751823e-01 -1.235495550878177307e-01
2.706883688979832558e-01 -1.235495565931958861e-01
2.714752536912913294e-01 -1.235495589967683383e-01
2.722621384845994030e-01 -1.235495626085090226e-01
2.730490232779075321e-01 -1.235495680962767073e-01
2.738359080712156057e-01 -1.235495764189834533e-01
2.746227928645236793e-01 -1.235495887751395516e-01
2.754096776578318084e-01 -1.235496074012921719e-01
2.761965624511398820e-01 -1.235496348502692632e-01
2.769834472444479556e-01 -1.235496756295354492e-01
2.777703320377560847e-01 -1.235497355138304165e-01
2.785572168310641583e-01 -1.235498230703712119e-01
2.793441016243722319e-01 -1.235499507643915695e-01
2.801309864176803610e-01 -1.235501349508949520e-01
2.809178712109884346e-01 -1.235504005295048335e-01
2.817047560042965082e-01 -1.235507793851919889e-01
2.824916407976045818e-01 -1.235513183230234624e-01
2.832785255909127109e-01 -1.235520792448154825e-01
2.840654103842207845e-01 -1.235531474470002999e-01
2.848522951775288581e-01 -1.235546391868149740e-01
2.856391799708369872e-01 -1.235567079177420924e-01
2.864260647641450608e-01 -1.235595627985653921e-01
2.872129495574531344e-01 -1.235634759032836483e-01
2.879998343507612635e-01 -1.235688099681991892e-01
2.887867191440693371e-01 -1.235760352951034147e-01
2.895736039373774107e-01 -1.235857633069386008e-01
2.903604887306855398e-01 -1.235987814572969690e-01
2.911473735239936134e-01 -1.236160940778077144e-01
2.919342583173016870e-01 -1.236389764683325510e-01
2.927211431106098161e-01 -1.236690319956903483e-01
2.935080279039178897e-01 -1.237082617859814881e-01
2.942949126972259632e-01 -1.237591440653188490e-01
2.950817974905340368e-01 -1.238247202987811102e-01
2.958686822838421659e-01 -1.239086937857329929e-01
2.966555670771502395e-01 -1.240155331110188719e-01
2.974424518704583131e-01 -1.241505807476027679e-01
2.982293366637664422e-01 -1.243201663884061503e-01
2.990162214570745158e-01 -1.245317169001474156e-01
2.998031062503825894e-01 -1.247938549608881287e-01
3.005899910436907185e-01 -1.251164963463787805e-01
3.013768758369987921e-01 -1.255109006000318939e-01
3.021637606303068657e-01 -1.259897183248951391e-01
3.029506454236149948e-01 -1.265669911836518891e-01
3.037375302169230684e-01 -1.272580620438702459e-01
3.045244150102311420e-01 -1.280794912036495870e-01
3.053112998035392156e-01 -1.290488307413439895e-01
3.060981845968473447e-01 -1.301843840020948662e-01
3.068850693901554183e-01 -1.315047975356546939e-01
3.076719541834634919e-01 -1.330286800581971240e-01
3.084588389767716210e-01 -1.347739646862669005e-01
3.092457237700796946e-01 -1.367573306234978192e-01
3.100326085633877682e-01 -1.389935437753752057e-01
3.108194933566958973e-01 -1.414947325064339623e-01
3.116063781500039709e-01 -1.442693823480106774e-01
3.123932629433120445e-01 -1.473217522801649748e-01
3.131801477366201736e-01 -1.506514963958868192e-01
3.139670325299282472e-01 -1.542523018922453693e-01
3.147539173232363208e-01 -1.581118025936366633e-01
3.155408021165444499e-01 -1.622119248587932105e-01
3.163276869098525235e-01 -1.665275471911205063e-01
3.171145717031605971e-01 -1.710277109132321005e-01
3.179014564964686707e-01 -1.756760957890880492e-01
3.186883412897767998e-01 -1.804319712682719290e-01
3.194752260830848734e-01 -1.852507153465060563e-01
3.202621108763929469e-01 -1.900866682984829747e-01
3.210489956697010761e-01 -1.948944298291526156e-01
3.218358804630091496e-01 -1.996300697482571440e-01
3.226227652563172232e-01 -2.042569219127464697e-01
3.234096500496253523e-01 -2.087426440171945563e-01
3.241965348429334259e-01 -2.130652709664724309e-01
3.249834196362414995e-01 -2.172163280388373918e-01
3.257703044295496286e-01 -2.211984095368637604e-01
3.265571892228577022e-01 -2.250307132996013371e-01
3.273440740161657758e-01 -2.287457545859811203e-01
3.281309588094738494e-01 -2.323929980984194010e-01
3.289178436027819785e-01 -2.360371284477686959e-01
3.297047283960900521e-01 -2.397549369902276517e-01
3.304916131893981257e-01 -2.436356677343518573e-01
3.312784979827062548e-01 -2.477696024097265637e-01
3.320653827760143284e-01 -2.522563622352044232e-01
3.328522675693224020e-01 -2.571931470805686182e-01
3.336391523626305311e-01 -2.626664336982954540e-01
3.344260371559386047e-01 -2.687516298165443240e-01
3.352129219492466783e-01 -2.755113446041078662e-01
3.359998067425548074e-01 -2.829812064830065088e-01
3.367866915358628810e-01 -2.911698631284875827e-01
3.375735763291709546e-01 -3.000624405391254523e-01
3.383604611224790837e-01 -3.096063608494143971e-01
3.391473459157871573e-01 -3.197186063769773545e-01
3.399342307090952309e-01 -3.302822605524662336e-01
3.407211155024033045e-01 -3.411471997335824291e-01
3.415080002957114336e-01 -3.521394326943436681e-01
3.422948850890195072e-01 -3.630548742989059274e-01
3.430817698823275808e-01 -3.736762949450489479e-01
3.438686546756357099e-01 -3.837695155870670671e-01
3.446555394689437835e-01 -3.930968981091554904e-01
3.454424242622518570e-01 -4.014239175585987418e-01
3.462293090555599862e-01 -4.085304041235920947e-01
3.470161938488680597e-01 -4.142046627140737458e-01
3.478030786421761333e-01 -4.182642273823188317e-01
3.485899634354842624e-01 -4.205660655797317515e-01
3.493768482287923360e-01 -4.209925689229445656e-01
3.501637330221004096e-01 -4.194704051258576483e-01
3.509506178154085387e-01 -4.159747553605100956e-01
3.517375026087166123e-01 -4.105143537789022190e-01
3.525243874020246859e-01 -4.031531499394900298e-01
3.533112721953327595e-01 -3.939915865902747782e-01
3.540981569886408886e-01 -3.831748365794760414e-01
3.548850417819489622e-01 -3.708774964703432930e-01
3.556719265752570358e-01 -3.573050782651362445e-01
3.564588113685651649e-01 -3.426944634080756336e-01
3.572456961618732385e-01 -3.272905540621741105e-01
3.580325809551813121e-01 -3.113553099298703719e-01
3.588194657484894412e-01 -2.951501286147120151e-01
3.596063505417975148e-01 -2.789430448109991856e-01
3.603932353351055884e-01 -2.629828521356061266e-01
3.611801201284137175e-01 -2.475105180593077936e-01
3.619670049217217911e-01 -2.327445260972353935e-01
3.627538897150298647e-01 -2.188790165586982361e-01
3.635407745083379383e-01 -2.060901425884904548e-01
3.643276593016460674e-01 -1.945220609329898487e-01
3.651145440949541410e-01 -1.842892668124751498e-01
3.659014288882622146e-01 -1.754783234561748673e-01
3.666883136815703437e-01 -1.681573313066642150e-01
3.674751984748784173e-01 -1.623591947682602177e-01
3.682620832681864909e-01 -1.580859892830225322e-01
3.690489680614946200e-01 -1.553355096937628632e-01
3.698358528548026936e-01 -1.540723437703422904e-01
3.706227376481107672e-01 -1.542454702287997526e-01
3.714096224414188963e-01 -1.557900747431543165e-01
3.721965072347269698e-01 -1.586290849077615084e-01
3.729833920280350434e-01 -1.626741566127712924e-01
3.737702768213431725e-01 -1.678254011018781577e-01
3.745571616146512461e-01 -1.739716606169692259e-01
3.753440464079593197e-01 -1.809974103239320176e-01
3.761309312012673933e-01 -1.887712920357548230e-01
3.769178159945755224e-01 -1.971608341772382866e-01
3.777047007878835960e-01 -2.060157293429846215e-01
3.784915855811916696e-01 -2.151719311335463791e-01
3.792784703744997987e-01 -2.244702574668027140e-01
3.800653551678078723e-01 -2.337177787079793845e-01
3.808522399611159459e-01 -2.427176305300640102e-01
3.816391247544240750e-01 -2.512508970341630343e-01
3.824260095477321486e-01 -2.590927819022144085e-01
3.832128943410402222e-01 -2.659942320870866128e-01
3.839997791343483513e-01 -2.717006600294894492e-01
3.847866639276564249e-01 -2.759330917259346094e-01
3.855735487209644985e-01 -2.784092670563396155e-01
3.863604335142725721e-01 -2.788419102489781976e-01
3.871473183075807012e-01 -2.769328494613125802e-01
3.879342031008887748e-01 -2.724001704802698764e-01
3.887210878941968484e-01 -2.649485551961437979e-01
3.895079726875049775e-01 -2.543067260364163529e-01
3.902948574808130511e-01 -2.402264082447281845e-01
3.910817422741211247e-01 -2.224794761480469729e-01
3.918686270674292538e-01 -2.008680709367071104e-01
3.926555118607373274e-01 -1.752453550850038289e-01
3.934423966540454010e-01 -1.455163771187182320e-01
3.942292814473535301e-01 -1.116247541952358757e-01
3.950161662406616037e-01 -7.358242010639837183e-02
3.958030510339696773e-01 -3.147083595303845627e-02
3.965899358272778064e-01 1.454915150523805600e-02
3.973768206205858800e-01 6.424638990906239577e-02
3.981637054138939535e-01 1.173079198912225785e-01
3.989505902072020271e-01 1.733457202633579275e-01
3.997374750005101562e-01 2.318801477178591419e-01
4.005243597938182298e-01 2.923540757768974263e-01
4.013112445871263034e-01 3.541276629489014116e-01
4.020981293804344325e-01 4.164947833115260067e-01
4.028850141737425061e-01 4.786814699301089604e-01
4.036718989670505797e-01 5.398365321300266917e-01
4.044587837603587088e-01 5.990858196588726425e-01
4.052456685536667824e-01 6.555133707544185118e-01
4.060325533469748560e-01 7.081715731630293664e-01
4.068194381402829851e-01 7.561186085734867834e-01
4.076063229335910587e-01 7.984228629313638859e-01
4.083932077268991323e-01 8.341998520123334870e-01
4.091800925202072059e-01 8.626150751549999107e-01
4.099669773135153350e-01 8.829163575663245833e-01
4.107538621068234086e-01 8.944630794639634175e-01
4.115407469001314822e-01 8.967235817736927128e-01
4.123276316934396113e-01 8.893336244140821467e-01
4.131145164867476849e-01 8.720849713651690482e-01
4.139014012800557585e-01 8.449541009502801181e-01
4.146882860733638876e-01 8.081163880234367713e-01
4.154751708666719612e-01 7.619322676889601631e-01
4.162620556599800348e-01 7.069745619552532112e-01
4.170489404532881639e-01 6.440077253142058034e-01
4.178358252465962375e-01 5.739809266009969768e-01
4.186227100399043111e-01 4.980218226679176130e-01
4.194095948332124402e-01 4.173888232170017698e-01
4.201964796265205138e-01 3.334655562878694468e-01
4.209833644198285874e-01 2.477096740202604508e-01
4.217702492131366609e-01 1.616369409315785433e-01
4.225571340064447901e-01 7.676519698128680957e-02
4.233440187997528636e-01 -5.397403267428990681e-03
4.241309035930609372e-01 -8.341188665336396468e-02
4.249177883863690663e-01 -1.559651901669186769e-01
4.257046731796771399e-01 -2.218618591818616315e-01
4.264915579729852135e-01 -2.801015306255473236e-01
4.272784427662933426e-01 -3.298388077657680162e-01
4.280653275596014162e-01 -3.704482907286155147e-01
4.288522123529094898e-01 -4.015252683125009048e-01
4.296390971462176189e-01 -4.228801834759962075e-01
4.304259819395256925e-01 -4.345324070116561854e-01
4.312128667328337661e-01 -4.367254574544539025e-01
4.319997515261418397e-01 -4.298820331704933384e-01
4.327866363194499688e-01 -4.145901760766128596e-01
4.335735211127580424e-01 -3.915887435459697308e-01
4.343604059060661160e-01 -3.617258995668509725e-01
4.351472906993742451e-01 -3.259604983707131698e-01
4.359341754926823187e-01 -2.852887521460827358e-01
4.367210602859903923e-01 -2.407483819226747812e-01
4.375079450792985214e-01 -1.933778005442241543e-01
4.382948298726065950e-01 -1.441960500619108299e-01
4.390817146659146686e-01 -9.418481456984539868e-02
4.398685994592227977e-01 -4.426282308633544549e-02
4.406554842525308713e-01 4.746665705045227668e-03
4.414423690458389449e-01 5.209683856991143003e-02
4.422292538391470740e-01 9.713289353851317642e-02
4.430161386324551476e-01 1.393055302791215144e-01
4.438030234257632212e-01 1.781768305171962385e-01
4.445899082190712948e-01 2.134026167778821925e-01
4.453767930123794239e-01 2.447293392229190623e-01
4.461636778056874975e-01 2.720027233258890398e-01
4.469505625989955711e-01 2.951400973114248760e-01
4.477374473923037002e-01 3.141335053182987558e-01
4.485243321856117737e-01 3.290498803529271488e-01
4.493112169789198473e-01 3.400123653108366728e-01
4.500981017722279764e-01 3.471888980453357032e-01
4.508849865655360500e-01 3.507897900184466788e-01
4.516718713588441236e-01 3.510594245326676965e-01
4.524587561521522527e-01 3.482462492978628532e-01
4.532456409454603263e-01 3.426282005964906840e-01
4.540325257387683999e-01 3.344967050843963285e-01
4.548194105320764735e-01 3.241462161037613754e-01
4.556062953253846026e-01 3.118743866366091577e-01
4.563931801186926762e-01 2.979638227100318559e-01
4.571800649120007498e-01 2.826950116706863358e-01
4.579669497053088789e-01 2.663464518999223429e-01
4.587538344986169525e-01 2.491886859178618074e-01
4.595407192919250261e-01 2.314654052129829775e-01
4.603276040852331552e-01 2.134013628649713556e-01
4.611144888785412288e-01 1.952124913247603732e-01
4.619013736718493024e-01 1.771001949488668625e-01
4.626882584651574315e-01 1.592198724614910521e-01