0.000000000000000000e+00 7.847171918257227485e-01
7.874240325017232110e-04 1.093043743085295727e-01
1.574848065003446422e-03 1.093043743085295727e-01
2.362272097505169633e-03 1.093043743085295727e-01
3.149696130006892844e-03 1.093043743085295727e-01
3.937120162508616489e-03 1.093043743085295727e-01
4.724544195010339266e-03 1.093043743085295727e-01
5.511968227512062043e-03 1.093043743085295727e-01
6.299392260013785688e-03 1.093043743085295727e-01
7.086816292515509333e-03 1.093043743085295727e-01
7.874240325017232978e-03 1.093043743085295727e-01
8.661664357518954888e-03 1.093043743085295727e-01
9.449088390020678532e-03 1.093043743085295727e-01
1.023651242252240218e-02 1.093043743085295727e-01
1.102393645502412409e-02 1.093043743085295727e-01
1.181136048752584773e-02 1.093043743085295727e-01
1.259878452002757138e-02 1.093043743085295727e-01
1.338620855252929502e-02 1.093043743085295727e-01
1.417363258503101867e-02 1.093043743085295727e-01
1.496105661753274058e-02 1.093043743085295727e-01
1.574848065003446596e-02 1.093043743085295727e-01
1.653590468253618787e-02 1.093043743085295727e-01
1.732332871503790978e-02 1.093043743085295727e-01
1.811075274753963515e-02 1.093043743085295727e-01
1.889817678004135706e-02 1.093043743085295727e-01
1.968560081254307897e-02 1.093043743085295727e-01
2.047302484504480435e-02 1.093043743085295727e-01
2.126044887754652626e-02 1.093043743085295727e-01
2.204787291004824817e-02 1.093043743085295727e-01
2.283529694254997355e-02 1.093043743085295727e-01
2.362272097505169546e-02 1.093043743085295727e-01
2.441014500755342084e-02 1.093043743085295727e-01
2.519756904005514275e-02 1.093043743085295727e-01
2.598499307255686466e-02 1.093043743085295727e-01
2.677241710505859004e-02 1.093043743085295727e-01
2.755984113756031195e-02 1.093043743085295727e-01
2.834726517006203733e-02 1.093043743085295727e-01
2.913468920256375924e-02 1.093043743085295727e-01
2.992211323506548115e-02 1.093043743085295727e-01
3.070953726756720653e-02 1.093043743085295727e-01
3.149696130006893191e-02 1.093043743085295727e-01
3.228438533257065035e-02 1.093043743085295727e-01
3.307180936507237573e-02 1.093043743085295727e-01
3.385923339757410111e-02 1.093043743085295727e-01
3.464665743007581955e-02 1.093043743085295727e-01
3.543408146257754493e-02 1.093043743085295727e-01
3.622150549507927031e-02 1.093043743085295727e-01
3.700892952758098875e-02 1.093043743085295727e-01
3.779635356008271413e-02 1.093043743085295727e-01
3.858377759258443951e-02 1.093043743085295727e-01
3.937120162508615795e-02 1.093043743085295727e-01
4.015862565758788333e-02 1.093043743085295727e-01
4.094604969008960871e-02 1.093043743085295727e-01
4.173347372259132715e-02 1.093043743085295727e-01
4.252089775509305253e-02 1.093043743085295727e-01
4.330832178759477791e-02 1.093043743085295727e-01
4.409574582009649635e-02 1.093043743085295727e-01
4.488316985259822173e-02 1.093043743085295727e-01
4.567059388509994711e-02 1.093043743085295727e-01
4.645801791760167249e-02 1.093043743085295727e-01
4.724544195010339093e-02 1.093043743085295727e-01
4.803286598260511631e-02 1.093043743085295727e-01
4.882029001510684169e-02 1.093043743085295727e-01
4.960771404760856013e-02 1.093043743085295727e-01
5.039513808011028551e-02 1.093043743085295727e-01
5.118256211261201089e-02 1.093043743085295727e-01
5.196998614511372933e-02 1.093043743085295727e-01
5.275741017761545470e-02 1.093043743085295727e-01
5.354483421011718008e-02 1.093043743085295727e-01
5.433225824261889852e-02 1.093043743085295727e-01
5.511968227512062390e-02 1.093043743085295727e-01
5.590710630762234928e-02 1.093043743085295727e-01
5.669453034012407466e-02 1.093043743085295727e-01
5.748195437262579310e-02 1.093043743085295727e-01
5.826937840512751848e-02 1.093043743085295727e-01
5.905680243762924386e-02 1.093043743085295727e-01
5.984422647013096230e-02 1.093043743085295727e-01
6.063165050263268768e-02 1.093043743085295727e-01
6.141907453513441306e-02 1.093043743085295727e-01
6.220649856763613150e-02 1.093043743085295727e-01
6.299392260013786382e-02 1.093043743085295727e-01
6.378134663263958226e-02 1.093043743085295727e-01
6.456877066514130070e-02 1.093043743085295727e-01
6.535619469764303302e-02 1.093043743085295727e-01
6.614361873014475146e-02 1.093043743085295727e-01
6.693104276264646990e-02 1.093043743085295727e-01
6.771846679514820222e-02 1.093043743085295727e-01
6.850589082764992066e-02 1.093043743085295727e-01
6.929331486015163910e-02 1.093043743085295727e-01
7.008073889265337142e-02 1.093043743085295727e-01
7.086816292515508986e-02 1.093043743085295727e-01
7.165558695765680830e-02 1.093043743085295727e-01
7.244301099015854062e-02 1.093043743085295727e-01
7.323043502266025906e-02 1.093043743085295727e-01
7.401785905516197750e-02 1.093043743085295727e-01
7.480528308766370982e-02 1.093043743085295727e-01
7.559270712016542826e-02 1.093043743085295727e-01
7.638013115266714670e-02 1.093043743085295727e-01
7.716755518516887902e-02 1.093043743085295727e-01
7.795497921767059746e-02 1.093043743085295727e-01
7.874240325017231590e-02 1.093043743085295727e-01
7.952982728267404822e-02 1.093043743085295727e-01
8.031725131517576666e-02 1.093043743085295727e-01
8.110467534767748510e-02 1.093043743085295727e-01
8.189209938017921742e-02 1.093043743085295727e-01
8.267952341268093586e-02 1.093043743085295727e-01
8.346694744518265430e-02 1.093043743085295727e-01
8.425437147768438662e-02 1.093043743085295727e-01
8.504179551018610506e-02 1.093043743085295727e-01
8.582921954268782350e-02 1.093043743085295727e-01
8.661664357518955581e-02 1.093043743085295727e-01
8.740406760769127426e-02 1.093043743085295727e-01
8.819149164019299270e-02 1.093043743085295727e-01
8.897891567269472501e-02 1.093043743085295727e-01
8.976633970519644345e-02 1.093043743085295727e-01
9.055376373769817577e-02 1.093043743085295727e-01
9.134118777019989421e-02 1.093043743085295727e-01
9.212861180270161265e-02 1.093043743085295727e-01
9.291603583520334497e-02 1.093043743085295727e-01
9.370345986770506341e-02 1.093043743085295727e-01
9.449088390020678185e-02 1.093043743085295727e-01
9.527830793270851417e-02 1.093043743085295727e-01
9.606573196521023261e-02 1.093043743085295727e-01
9.685315599771195105e-02 1.093043743085295727e-01
9.764058003021368337e-02 1.093043743085295727e-01
9.842800406271540181e-02 1.093043743085295727e-01
9.921542809521712025e-02 1.093043743085295727e-01
1.000028521277188526e-01 1.093043743085295727e-01
1.007902761602205710e-01 1.093043743085295727e-01
1.015777001927222895e-01 1.093043743085295727e-01
1.023651242252240218e-01 1.093043743085295727e-01
1.031525482577257402e-01 1.093043743085295727e-01
1.039399722902274587e-01 1.093043743085295727e-01
1.047273963227291910e-01 1.093043743085295727e-01
1.055148203552309094e-01 1.093043743085295727e-01
1.063022443877326279e-01 1.093043743085295727e-01
1.070896684202343602e-01 1.093043743085295727e-01
1.078770924527360786e-01 1.093043743085295727e-01
1.086645164852377970e-01 1.093043743085295727e-01
1.094519405177395294e-01 1.093043743085295727e-01
1.102393645502412478e-01 1.093043743085295727e-01
1.110267885827429662e-01 1.093043743085295727e-01
1.118142126152446986e-01 1.093043743085295727e-01
1.126016366477464170e-01 1.093043743085295727e-01
1.133890606802481493e-01 1.093043743085295727e-01
1.141764847127498678e-01 1.093043743085295727e-01
1.149639087452515862e-01 1.093043743085295727e-01
1.157513327777533185e-01 1.093043743085295727e-01
1.165387568102550370e-01 1.093043743085295727e-01
1.173261808427567554e-01 1.093043743085295727e-01
1.181136048752584877e-01 1.093043743085295727e-01
1.189010289077602062e-01 1.093043743085295727e-01
1.196884529402619246e-01 1.093043743085295727e-01
1.204758769727636569e-01 1.093043743085295727e-01
1.212633010052653754e-01 1.093043743085295727e-01
1.220507250377670938e-01 1.093043743085295727e-01
1.228381490702688261e-01 1.093043743085295727e-01
1.236255731027705446e-01 1.093043743085295727e-01
1.244129971352722630e-01 1.093043743085295727e-01
1.252004211677739953e-01 1.093043743085295727e-01
1.259878452002757276e-01 1.093043743085295727e-01
1.267752692327774322e-01 1.093043743085295727e-01
1.275626932652791645e-01 1.093043743085295727e-01
1.283501172977808968e-01 1.093043743085295727e-01
1.291375413302826014e-01 1.093043743085295727e-01
1.299249653627843337e-01 1.093043743085295727e-01
1.307123893952860660e-01 1.093043743085295727e-01
1.314998134277877706e-01 1.093043743085295727e-01
1.322872374602895029e-01 1.093043743085295727e-01
1.330746614927912352e-01 1.093043743085295727e-01
1.338620855252929398e-01 1.093043743085295727e-01
1.346495095577946721e-01 1.093043743085295727e-01
1.354369335902964044e-01 1.093043743085295727e-01
1.362243576227981090e-01 1.093043743085295727e-01
1.370117816552998413e-01 1.093043743085295727e-01
1.377992056878015736e-01 1.093043743085295727e-01
1.385866297203032782e-01 1.093043743085295727e-01
1.393740537528050105e-01 1.093043743085295727e-01
1.401614777853067428e-01 1.093043743085295727e-01
1.409489018178084474e-01 1.093043743085295727e-01
1.417363258503101797e-01 1.093043743085295727e-01
1.425237498828119120e-01 1.093043743085295727e-01
1.433111739153136166e-01 1.093043743085295727e-01
1.440985979478153489e-01 1.093043743085295727e-01
1.448860219803170812e-01 1.093043743085295727e-01
1.456734460128187858e-01 1.093043743085295727e-01
1.464608700453205181e-01 1.093043743085295727e-01
1.472482940778222504e-01 1.093043743085295727e-01
1.480357181103239550e-01 1.093043743085295727e-01
1.488231421428256873e-01 1.093043743085295727e-01
1.496105661753274196e-01 1.093043743085295727e-01
1.503979902078291242e-01 1.093043743085295727e-01
1.511854142403308565e-01 1.093043743085295727e-01
1.519728382728325888e-01 1.093043743085295727e-01
1.527602623053342934e-01 1.093043743085295727e-01
1.535476863378360257e-01 1.093043743085295727e-01
1.543351103703377580e-01 1.093043743085295727e-01
1.551225344028394626e-01 1.093043743085295727e-01
1.559099584353411949e-01 1.093043743085295727e-01
1.566973824678429272e-01 1.093043743085295727e-01
1.574848065003446318e-01 1.093043743085295727e-01
1.582722305328463641e-01 1.093043743085295727e-01
1.590596545653480964e-01 1.093043743085295727e-01
1.598470785978498010e-01 1.093043743085295727e-01
1.606345026303515333e-01 1.093043743085295727e-01
1.614219266628532656e-01 1.093043743085295727e-01
1.622093506953549702e-01 1.093043743085295727e-01
1.629967747278567025e-01 1.093043743085295727e-01
1.637841987603584348e-01 1.093043743085295727e-01
1.645716227928601394e-01 1.093043743085295727e-01
1.653590468253618717e-01 1.093043743085295727e-01
1.661464708578636040e-01 1.093043743085295727e-01
1.669338948903653086e-01 1.093043743085295727e-01
1.677213189228670409e-01 1.093043743085295727e-01
1.685087429553687732e-01 1.093043743085295727e-01
1.692961669878704778e-01 1.093043743085295727e-01
1.700835910203722101e-01 1.093043743085295727e-01
1.708710150528739424e-01 1.093043743085295727e-01
1.716584390853756470e-01 1.093043743085295727e-01
1.724458631178773793e-01 1.093043743085295727e-01
1.732332871503791116e-01 1.093043743085295727e-01
1.740207111828808162e-01 1.093043743085295727e-01
1.748081352153825485e-01 1.093043743085295727e-01
1.755955592478842808e-01 1.093043743085295727e-01
1.763829832803859854e-01 1.093043743085295727e-01
1.771704073128877177e-01 1.093043743085295727e-01
1.779578313453894500e-01 1.093043743085295727e-01
1.787452553778911823e-01 1.093043743085295727e-01
1.795326794103928869e-01 1.093043743085295727e-01
1.803201034428946192e-01 1.093043743085295727e-01
1.811075274753963515e-01 1.093043743085295727e-01
1.818949515078980561e-01 1.093043743085295727e-01
1.826823755403997884e-01 1.093043743085295727e-01
1.834697995729015207e-01 1.093043743085295727e-01
1.842572236054032253e-01 1.093043743085295727e-01
1.850446476379049576e-01 1.093043743085295727e-01
1.858320716704066899e-01 1.093043743085295727e-01
1.866194957029083945e-01 1.093043743085295727e-01
1.874069197354101268e-01 1.093043743085295727e-01
1.881943437679118591e-01 1.093043743085295727e-01
1.889817678004135637e-01 1.093043743085295727e-01
1.897691918329152960e-01 1.093043743085295727e-01
1.905566158654170283e-01 1.093043743085295727e-01
1.913440398979187329e-01 1.093043743085295727e-01
1.921314639304204652e-01 1.093043743085295727e-01
1.929188879629221975e-01 1.093043743085295727e-01
1.937063119954239021e-01 1.093043743085295727e-01
1.944937360279256344e-01 1.093043743085295727e-01
1.952811600604273667e-01 1.093043743085295727e-01
1.960685840929290713e-01 1.093043743085295727e-01
1.968560081254308036e-01 1.093043743085295727e-01
1.976434321579325359e-01 1.093043743085295727e-01
1.984308561904342405e-01 1.093043743085295727e-01
1.992182802229359728e-01 1.093043743085295727e-01
2.000057042554377051e-01 1.093043743085295727e-01
2.007931282879394097e-01 1.093043743085295727e-01
2.015805523204411420e-01 1.093043743085295727e-01
2.023679763529428743e-01 1.093043743085295727e-01
2.031554003854445789e-01 1.093043743085295727e-01
2.039428244179463112e-01 1.093043743085295727e-01
2.047302484504480435e-01 1.093043743085295727e-01
2.055176724829497481e-01 1.093043743085295727e-01
2.063050965154514804e-01 1.093043743085295727e-01
2.070925205479532127e-01 1.093043743085295727e-01
2.078799445804549173e-01 1.093043743085295727e-01
2.086673686129566496e-01 1.093043743085295727e-01
2.094547926454583819e-01 1.093043743085295727e-01
2.102422166779600865e-01 1.093043743085295727e-01
2.110296407104618188e-01 1.093043743085295727e-01
2.118170647429635511e-01 1.093043743085295727e-01
2.126044887754652557e-01 1.093043743085295727e-01
2.133919128079669880e-01 1.093043743085295727e-01
2.141793368404687203e-01 1.093043743085295727e-01
2.149667608729704249e-01 1.093043743085295727e-01
2.157541849054721572e-01 1.093043743085295727e-01
2.165416089379738895e-01 1.093043743085295727e-01
2.173290329704755941e-01 1.093043743085295727e-01
2.181164570029773264e-01 1.093043743085295727e-01
2.189038810354790587e-01 1.093043743085295727e-01
2.196913050679807633e-01 1.093043743085295727e-01
2.204787291004824956e-01 1.093043743085295727e-01
2.212661531329842279e-01 1.093043743085295727e-01
2.220535771654859325e-01 1.093043743085295727e-01
2.228410011979876648e-01 1.093043743085295727e-01
2.236284252304893971e-01 1.093043743085295727e-01
2.244158492629911017e-01 1.093043743085295727e-01
2.252032732954928340e-01 1.093043743085295727e-01
2.259906973279945663e-01 1.093043743085295727e-01
2.267781213604962987e-01 1.093043743085295727e-01
2.275655453929980032e-01 1.093043743085295727e-01
2.283529694254997355e-01 1.093043743085295727e-01
2.291403934580014679e-01 1.093043743085295727e-01
2.299278174905031724e-01 1.093043743085295727e-01
2.307152415230049047e-01 1.093043743085295727e-01
2.315026655555066371e-01 1.093043743085295727e-01
2.322900895880083416e-01 1.093043743085295727e-01
2.330775136205100739e-01 1.093043743085295727e-01
2.338649376530118063e-01 1.093043743085295727e-01
2.346523616855135108e-01 1.093043743085295727e-01
2.354397857180152431e-01 1.093043743085295727e-01
2.362272097505169755e-01 1.093043743085295727e-01
2.370146337830186800e-01 1.093043743085295727e-01
2.378020578155204123e-01 1.093043743085295727e-01
2.385894818480221446e-01 1.093043743085295727e-01
2.393769058805238492e-01 1.093043743085295727e-01
2.401643299130255815e-01 1.093043743085295727e-01
2.409517539455273138e-01 1.093043743085295727e-01
2.417391779780290184e-01 1.093043743085295727e-01
2.425266020105307507e-01 1.093043743085295727e-01
2.433140260430324830e-01 1.093043743085295727e-01
2.441014500755341876e-01 1.093043743085295727e-01
2.448888741080359199e-01 1.093043743085295727e-01
2.456762981405376522e-01 1.093043743085295727e-01
2.464637221730393568e-01 1.093043743085295727e-01
2.472511462055410891e-01 1.093043743085295727e-01
2.480385702380428214e-01 1.093043743085295727e-01
2.488259942705445260e-01 1.093043743085295727e-01
2.496134183030462583e-01 1.093043743085295727e-01
2.504008423355479906e-01 1.093043743085295727e-01
2.511882663680496952e-01 1.093043743085295727e-01
2.519756904005514553e-01 1.093043743085295727e-01
2.527631144330531598e-01 1.093043743085295727e-01
2.535505384655548644e-01 1.093043743085295727e-01
2.543379624980566245e-01 1.093043743085295727e-01
2.551253865305583290e-01 1.093043743085295727e-01
2.559128105630600336e-01 1.093043743085295727e-01
2.567002345955617937e-01 1.093043743085295727e-01
2.574876586280634982e-01 1.093043743085295727e-01
2.582750826605652028e-01 1.093043743085297947e-01
2.590625066930669629e-01 1.093043743085302388e-01
2.598499307255686674e-01 1.093043743085315711e-01
2.606373547580703720e-01 1.093043743085355679e-01
2.614247787905721321e-01 1.093043743085471142e-01
2.622122028230738366e-01 1.093043743085799768e-01
2.629996268555755412e-01 1.093043743086725694e-01
2.637870508880773013e-01 1.093043743089268105e-01
2.645744749205790058e-01 1.093043743096133724e-01
2.653618989530807104e-01 1.093043743114319177e-01
2.661493229855824705e-01 1.093043743161519199e-01
2.669367470180841750e-01 1.093043743281507663e-01
2.677241710505858796e-01 1.093043743580115468e-01
2.685115950830876397e-01 1.093043744307389264e-01
2.692990191155893442e-01 1.093043746040394115e-01
2.700864431480910488e-01 1.093043750079585319e-01
2.708738671805928089e-01 1.093043759285932115e-01
2.716612912130945134e-01 1.093043779801896598e-01
2.724487152455962180e-01 1.093043824493675764e-01
2.732361392780979781e-01 1.093043919645404483e-01
2.740235633105996826e-01 1.093044117607557819e-01
2.748109873431013872e-01 1.093044519996086983e-01
2.755984113756031473e-01 1.093045318957337475e-01
2.763858354081048518e-01 1.093046868265092897e-01
2.771732594406065564e-01 1.093049801802383758e-01
2.779606834731083165e-01 1.093055224204768638e-01
2.787481075056100210e-01 1.093065006427416108e-01
2.795355315381117256e-01 1.093082226020374303e-01
2.803229555706134857e-01 1.093111795037233769e-01
2.811103796031151902e-01 1.093161313384285460e-01
2.818978036356168948e-01 1.093242166436920737e-01
2.826852276681186549e-01 1.093370848195494016e-01
2.834726517006203594e-01 1.093570432067003662e-01
2.842600757331220640e-01 1.093872036063590070e-01
2.850474997656238241e-01 1.094316049106189848e-01
2.858349237981255286e-01 1.094952829630460034e-01
2.866223478306272332e-01 1.095842592971651985e-01
2.874097718631289933e-01 1.097054307103055848e-01
2.881971958956306978e-01 1.098663661461609653e-01
2.889846199281324024e-01 1.100750514163502114e-01
2.897720439606341625e-01 1.103396649350310010e-01
2.905594679931358670e-01 1.106685022636515470e-01
2.913468920256375716e-01 1.110701726516540866e-01
2.921343160581393317e-01 1.115541576258434198e-01
2.929217400906410362e-01 1.121317300006430262e-01
2.937091641231427408e-01 1.128171043474561763e-01
2.944965881556445009e-01 1.136285361103488434e-01
2.952840121881462054e-01 1.145890233345994158e-01
2.960714362206479100e-01 1.157262327342094554e-01
2.968588602531496701e-01 1.170714747187446836e-01
2.976462842856513746e-01 1.186578256761139372e-01
2.984337083181530792e-01 1.205178360653762493e-01
2.992211323506548393e-01 1.226815241578040894e-01
3.000085563831565438e-01 1.251752536072603395e-01
3.007959804156582484e-01 1.280218225052436321e-01
3.015834044481600085e-01 1.312414345849628461e-01
3.023708284806617130e-01 1.348526200168964628e-01
3.031582525131634176e-01 1.388717380447668237e-01
3.039456765456651777e-01 1.433100801761562071e-01
3.047331005781668822e-01 1.481682378709852088e-01
3.055205246106685868e-01 1.534290587915463355e-01
3.063079486431703469e-01 1.590509122247667495e-01
3.070953726756720514e-01 1.649634682091367655e-01
3.078827967081737560e-01 1.710674421315614424e-01
3.086702207406755161e-01 1.772372562970050414e-01
3.094576447731772206e-01 1.833249381870614148e-01
3.102450688056789252e-01 1.891625938378049820e-01
3.110324928381806853e-01 1.945614937653672438e-01
3.118199168706823898e-01 1.993085510909531344e-01
3.126073409031840944e-01 2.031625039358968543e-01
3.133947649356858545e-01 2.058542918052475024e-01
3.141821889681875590e-01 2.070927013415602147e-01
3.149696130006892636e-01 2.065736146072965074e-01
3.157570370331910237e-01 2.039913005924063327e-01
3.165444610656927282e-01 1.990487388784027978e-01
3.173318850981944328e-01 1.914650397719157571e-01
3.181193091306961929e-01 1.809815739802371759e-01
3.189067331631978974e-01 1.673724038135615544e-01
3.196941571956996020e-01 1.504633174406260210e-01
3.204815812282013621e-01 1.301536591367007389e-01
3.212690052607030666e-01 1.064386972224182770e-01
3.220564292932047712e-01 7.942295879653604729e-02
3.228438533257065313e-01 4.932152019394719922e-02
3.236312773582082358e-01 1.645247931395821261e-02
3.244187013907099404e-01 -1.876971174609287640e-02
3.252061254232117005e-01 -5.583252608015631946e-02
3.259935494557134050e-01 -9.411783430175035825e-02
3.267809734882151096e-01 -1.328958824065837874e-01
3.275683975207168697e-01 -1.713343249786214439e-01
3.283558215532185742e-01 -2.085266152662903494e-01
3.291432455857202788e-01 -2.435337299914485110e-01
3.299306696182220389e-01 -2.754258941583547227e-01
3.307180936507237434e-01 -3.033058092978360154e-01
3.315055176832254480e-01 -3.263088685436235092e-01
3.322929417157272081e-01 -3.435949837316260025e-01
3.330803657482289126e-01 -3.543561130716513796e-01
3.338677897807306172e-01 -3.578586849544640458e-01
3.346552138132323773e-01 -3.535144387195903182e-01
3.354426378457340818e-01 -3.409575564059196262e-01
3.362300618782357864e-01 -3.200970338392502557e-01
3.370174859107375465e-01 -2.911180786284668365e-01
3.378049099432392510e-01 -2.544286368117771868e-01
3.385923339757409556e-01 -2.105788736538372063e-01
3.393797580082427157e-01 -1.602004683502268323e-01
3.401671820407444202e-01 -1.039962903633757652e-01
3.409546060732461248e-01 -4.278083377352293049e-02
3.417420301057478849e-01 2.245870104217395635e-02
3.425294541382495894e-01 9.054111485248350633e-02
3.433168781707512940e-01 1.601514309458713647e-01
3.441043022032530541e-01 2.299677901680865499e-01
3.448917262357547586e-01 2.987978093184833206e-01
3.456791502682564632e-01 3.656469754245177395e-01
3.464665743007582233e-01 4.296881049021918919e-01
3.472539983332599278e-01 4.901684305793811980e-01
3.480414223657616324e-01 5.463394868106588032e-01
3.488288463982633925e-01 5.974657125306914729e-01
3.496162704307650970e-01 6.429311291163459785e-01
3.504036944632668016e-01 6.823391358060801881e-01
3.511911184957685617e-01 7.155168112266405700e-01
3.519785425282702662e-01 7.424185591950294150e-01
3.527659665607719708e-01 7.629953423068915885e-01
3.535533905932737309e-01 7.771357510207523855e-01
