0.000000000000000000e+00 5.417810113076808598e-01
7.868847933080908323e-04 1.158697095475802463e-01
1.573769586616181665e-03 1.158697095475802463e-01
2.360654379924272388e-03 1.158697095475802463e-01
3.147539173232363329e-03 1.158697095475802463e-01
3.934423966540453836e-03 1.158697095475802463e-01
4.721308759848544777e-03 1.158697095475802463e-01
5.508193553156635718e-03 1.158697095475802463e-01
6.295078346464726658e-03 1.158697095475802463e-01
7.081963139772817599e-03 1.158697095475802463e-01
7.868847933080907672e-03 1.158697095475802463e-01
8.655732726388998613e-03 1.158697095475802463e-01
9.442617519697089554e-03 1.158697095475802463e-01
1.022950231300518049e-02 1.158697095475802463e-01
1.101638710631327144e-02 1.158697095475802463e-01
1.180327189962136238e-02 1.158697095475802463e-01
1.259015669292945332e-02 1.158697095475802463e-01
1.337704148623754426e-02 1.158697095475802463e-01
1.416392627954563520e-02 1.158697095475802463e-01
1.495081107285372614e-02 1.158697095475802463e-01
1.573769586616181534e-02 1.158697095475802463e-01
1.652458065946990629e-02 1.158697095475802463e-01
1.731146545277799723e-02 1.158697095475802463e-01
1.809835024608608817e-02 1.158697095475802463e-01
1.888523503939417911e-02 1.158697095475802463e-01
1.967211983270227005e-02 1.158697095475802463e-01
2.045900462601036099e-02 1.158697095475802463e-01
2.124588941931845193e-02 1.158697095475802463e-01
2.203277421262654287e-02 1.158697095475802463e-01
2.281965900593463381e-02 1.158697095475802463e-01
2.360654379924272475e-02 1.158697095475802463e-01
2.439342859255081569e-02 1.158697095475802463e-01
2.518031338585890663e-02 1.158697095475802463e-01
2.596719817916699757e-02 1.158697095475802463e-01
2.675408297247508851e-02 1.158697095475802463e-01
2.754096776578317946e-02 1.158697095475802463e-01
2.832785255909127040e-02 1.158697095475802463e-01
2.911473735239936134e-02 1.158697095475802463e-01
2.990162214570745228e-02 1.158697095475802463e-01
3.068850693901554322e-02 1.158697095475802463e-01
3.147539173232363069e-02 1.158697095475802463e-01
3.226227652563172510e-02 1.158697095475802463e-01
3.304916131893981257e-02 1.158697095475802463e-01
3.383604611224790698e-02 1.158697095475802463e-01
3.462293090555599445e-02 1.158697095475802463e-01
3.540981569886408886e-02 1.158697095475802463e-01
3.619670049217217633e-02 1.158697095475802463e-01
3.698358528548027074e-02 1.158697095475802463e-01
3.777047007878835821e-02 1.158697095475802463e-01
3.855735487209645262e-02 1.158697095475802463e-01
3.934423966540454010e-02 1.158697095475802463e-01
4.013112445871263451e-02 1.158697095475802463e-01
4.091800925202072198e-02 1.158697095475802463e-01
4.170489404532881639e-02 1.158697095475802463e-01
4.249177883863690386e-02 1.158697095475802463e-01
4.327866363194499827e-02 1.158697095475802463e-01
4.406554842525308574e-02 1.158697095475802463e-01
4.485243321856118015e-02 1.158697095475802463e-01
4.563931801186926762e-02 1.158697095475802463e-01
4.642620280517736203e-02 1.158697095475802463e-01
4.721308759848544950e-02 1.158697095475802463e-01
4.799997239179354391e-02 1.158697095475802463e-01
4.878685718510163138e-02 1.158697095475802463e-01
4.957374197840972579e-02 1.158697095475802463e-01
5.036062677171781327e-02 1.158697095475802463e-01
5.114751156502590074e-02 1.158697095475802463e-01
5.193439635833399515e-02 1.158697095475802463e-01
5.272128115164208262e-02 1.158697095475802463e-01
5.350816594495017703e-02 1.158697095475802463e-01
5.429505073825826450e-02 1.158697095475802463e-01
5.508193553156635891e-02 1.158697095475802463e-01
5.586882032487444638e-02 1.158697095475802463e-01
5.665570511818254079e-02 1.158697095475802463e-01
5.744258991149062826e-02 1.158697095475802463e-01
5.822947470479872267e-02 1.158697095475802463e-01
5.901635949810681014e-02 1.158697095475802463e-01
5.980324429141490455e-02 1.158697095475802463e-01
6.059012908472299203e-02 1.158697095475802463e-01
6.137701387803108644e-02 1.158697095475802463e-01
6.216389867133917391e-02 1.158697095475802463e-01
6.295078346464726138e-02 1.158697095475802463e-01
6.373766825795536273e-02 1.158697095475802463e-01
6.452455305126345020e-02 1.158697095475802463e-01
6.531143784457153767e-02 1.158697095475802463e-01
6.609832263787962514e-02 1.158697095475802463e-01
6.688520743118772649e-02 1.158697095475802463e-01
6.767209222449581396e-02 1.158697095475802463e-01
6.845897701780390143e-02 1.158697095475802463e-01
6.924586181111198890e-02 1.158697095475802463e-01
7.003274660442009025e-02 1.158697095475802463e-01
7.081963139772817772e-02 1.158697095475802463e-01
7.160651619103626520e-02 1.158697095475802463e-01
7.239340098434435267e-02 1.158697095475802463e-01
7.318028577765245402e-02 1.158697095475802463e-01
7.396717057096054149e-02 1.158697095475802463e-01
7.475405536426862896e-02 1.158697095475802463e-01
7.554094015757671643e-02 1.158697095475802463e-01
7.632782495088480390e-02 1.158697095475802463e-01
7.711470974419290525e-02 1.158697095475802463e-01
7.790159453750099272e-02 1.158697095475802463e-01
7.868847933080908019e-02 1.158697095475802463e-01
7.947536412411716766e-02 1.158697095475802463e-01
8.026224891742526901e-02 1.158697095475802463e-01
8.104913371073335648e-02 1.158697095475802463e-01
8.183601850404144396e-02 1.158697095475802463e-01
8.262290329734953143e-02 1.158697095475802463e-01
8.340978809065763278e-02 1.158697095475802463e-01
8.419667288396572025e-02 1.158697095475802463e-01
8.498355767727380772e-02 1.158697095475802463e-01
8.577044247058189519e-02 1.158697095475802463e-01
8.655732726388999654e-02 1.158697095475802463e-01
8.734421205719808401e-02 1.158697095475802463e-01
8.813109685050617148e-02 1.158697095475802463e-01
8.891798164381425895e-02 1.158697095475802463e-01
8.970486643712236030e-02 1.158697095475802463e-01
9.049175123043044777e-02 1.158697095475802463e-01
9.127863602373853524e-02 1.158697095475802463e-01
9.206552081704662271e-02 1.158697095475802463e-01
9.285240561035472406e-02 1.158697095475802463e-01
9.363929040366281153e-02 1.158697095475802463e-01
9.442617519697089901e-02 1.158697095475802463e-01
9.521305999027898648e-02 1.158697095475802463e-01
9.599994478358708783e-02 1.158697095475802463e-01
9.678682957689517530e-02 1.158697095475802463e-01
9.757371437020326277e-02 1.158697095475802463e-01
9.836059916351135024e-02 1.158697095475802463e-01
9.914748395681945159e-02 1.158697095475802463e-01
9.993436875012753906e-02 1.158697095475802463e-01
1.007212535434356265e-01 1.158697095475802463e-01
1.015081383367437140e-01 1.158697095475802463e-01
1.022950231300518015e-01 1.158697095475802463e-01
1.030819079233599028e-01 1.158697095475802463e-01
1.038687927166679903e-01 1.158697095475802463e-01
1.046556775099760778e-01 1.158697095475802463e-01
1.054425623032841652e-01 1.158697095475802463e-01
1.062294470965922666e-01 1.158697095475802463e-01
1.070163318899003541e-01 1.158697095475802463e-01
1.078032166832084415e-01 1.158697095475802463e-01
1.085901014765165290e-01 1.158697095475802463e-01
1.093769862698246303e-01 1.158697095475802463e-01
1.101638710631327178e-01 1.158697095475802463e-01
1.109507558564408053e-01 1.158697095475802463e-01
1.117376406497488928e-01 1.158697095475802463e-01
1.125245254430569941e-01 1.158697095475802463e-01
1.133114102363650816e-01 1.158697095475802463e-01
1.140982950296731691e-01 1.158697095475802463e-01
1.148851798229812565e-01 1.158697095475802463e-01
1.156720646162893579e-01 1.158697095475802463e-01
1.164589494095974453e-01 1.158697095475802463e-01
1.172458342029055328e-01 1.158697095475802463e-01
1.180327189962136203e-01 1.158697095475802463e-01
1.188196037895217216e-01 1.158697095475802463e-01
1.196064885828298091e-01 1.158697095475802463e-01
1.203933733761378966e-01 1.158697095475802463e-01
1.211802581694459841e-01 1.158697095475802463e-01
1.219671429627540854e-01 1.158697095475802463e-01
1.227540277560621729e-01 1.158697095475802463e-01
1.235409125493702603e-01 1.158697095475802463e-01
1.243277973426783478e-01 1.158697095475802463e-01
1.251146821359864492e-01 1.158697095475802463e-01
1.259015669292945228e-01 1.158697095475802463e-01
1.266884517226026241e-01 1.158697095475802463e-01
1.274753365159107255e-01 1.158697095475802463e-01
1.282622213092187990e-01 1.158697095475802463e-01
1.290491061025269004e-01 1.158697095475802463e-01
1.298359908958349740e-01 1.158697095475802463e-01
1.306228756891430753e-01 1.158697095475802463e-01
1.314097604824511767e-01 1.158697095475802463e-01
1.321966452757592503e-01 1.158697095475802463e-01
1.329835300690673516e-01 1.158697095475802463e-01
1.337704148623754530e-01 1.158697095475802463e-01
1.345572996556835266e-01 1.158697095475802463e-01
1.353441844489916279e-01 1.158697095475802463e-01
1.361310692422997015e-01 1.158697095475802463e-01
1.369179540356078029e-01 1.158697095475802463e-01
1.377048388289159042e-01 1.158697095475802463e-01
1.384917236222239778e-01 1.158697095475802463e-01
1.392786084155320792e-01 1.158697095475802463e-01
1.400654932088401805e-01 1.158697095475802463e-01
1.408523780021482541e-01 1.158697095475802463e-01
1.416392627954563554e-01 1.158697095475802463e-01
1.424261475887644290e-01 1.158697095475802463e-01
1.432130323820725304e-01 1.158697095475802463e-01
1.439999171753806317e-01 1.158697095475802463e-01
1.447868019686887053e-01 1.158697095475802463e-01
1.455736867619968067e-01 1.158697095475802463e-01
1.463605715553049080e-01 1.158697095475802463e-01
1.471474563486129816e-01 1.158697095475802463e-01
1.479343411419210830e-01 1.158697095475802463e-01
1.487212259352291566e-01 1.158697095475802463e-01
1.495081107285372579e-01 1.158697095475802463e-01
1.502949955218453593e-01 1.158697095475802463e-01
1.510818803151534329e-01 1.158697095475802463e-01
1.518687651084615342e-01 1.158697095475802463e-01
1.526556499017696078e-01 1.158697095475802463e-01
1.534425346950777092e-01 1.158697095475802463e-01
1.542294194883858105e-01 1.158697095475802463e-01
1.550163042816938841e-01 1.158697095475802463e-01
1.558031890750019854e-01 1.158697095475802463e-01
1.565900738683100868e-01 1.158697095475802463e-01
1.573769586616181604e-01 1.158697095475802463e-01
1.581638434549262617e-01 1.158697095475802463e-01
1.589507282482343353e-01 1.158697095475802463e-01
1.597376130415424367e-01 1.158697095475802463e-01
1.605244978348505380e-01 1.158697095475802463e-01
1.613113826281586116e-01 1.158697095475802463e-01
1.620982674214667130e-01 1.158697095475802463e-01
1.628851522147748143e-01 1.158697095475802463e-01
1.636720370080828879e-01 1.158697095475802463e-01
1.644589218013909893e-01 1.158697095475802463e-01
1.652458065946990629e-01 1.158697095475802463e-01
1.660326913880071642e-01 1.158697095475802463e-01
1.668195761813152656e-01 1.158697095475802463e-01
1.676064609746233391e-01 1.158697095475802463e-01
1.683933457679314405e-01 1.158697095475802463e-01
1.691802305612395418e-01 1.158697095475802463e-01
1.699671153545476154e-01 1.158697095475802463e-01
1.707540001478557168e-01 1.158697095475802463e-01
1.715408849411637904e-01 1.158697095475802463e-01
1.723277697344718917e-01 1.158697095475802463e-01
1.731146545277799931e-01 1.158697095475802463e-01
1.739015393210880667e-01 1.158697095475802463e-01
1.746884241143961680e-01 1.158697095475802463e-01
1.754753089077042694e-01 1.158697095475802463e-01
1.762621937010123430e-01 1.158697095475802463e-01
1.770490784943204443e-01 1.158697095475802463e-01
1.778359632876285179e-01 1.158697095475802463e-01
1.786228480809366193e-01 1.158697095475802463e-01
1.794097328742447206e-01 1.158697095475802463e-01
1.801966176675527942e-01 1.158697095475802463e-01
1.809835024608608955e-01 1.158697095475802463e-01
1.817703872541689691e-01 1.158697095475802463e-01
1.825572720474770705e-01 1.158697095475802463e-01
1.833441568407851718e-01 1.158697095475802463e-01
1.841310416340932454e-01 1.158697095475802463e-01
1.849179264274013468e-01 1.158697095475802463e-01
1.857048112207094481e-01 1.158697095475802463e-01
1.864916960140175217e-01 1.158697095475802463e-01
1.872785808073256231e-01 1.158697095475802463e-01
1.880654656006336967e-01 1.158697095475802463e-01
1.888523503939417980e-01 1.158697095475802463e-01
1.896392351872498994e-01 1.158697095475802463e-01
1.904261199805579730e-01 1.158697095475802463e-01
1.912130047738660743e-01 1.158697095475802463e-01
1.919998895671741757e-01 1.158697095475802463e-01
1.927867743604822492e-01 1.158697095475802463e-01
1.935736591537903506e-01 1.158697095475802463e-01
1.943605439470984242e-01 1.158697095475802463e-01
1.951474287404065255e-01 1.158697095475802463e-01
1.959343135337146269e-01 1.158697095475802463e-01
1.967211983270227005e-01 1.158697095475802463e-01
1.975080831203308018e-01 1.158697095475802463e-01
1.982949679136389032e-01 1.158697095475802463e-01
1.990818527069469768e-01 1.158697095475802463e-01
1.998687375002550781e-01 1.158697095475802463e-01
2.006556222935631517e-01 1.158697095475802463e-01
2.014425070868712531e-01 1.158697095475802463e-01
2.022293918801793544e-01 1.158697095475802463e-01
2.030162766734874280e-01 1.158697095475802463e-01
2.038031614667955294e-01 1.158697095475802463e-01
2.045900462601036029e-01 1.158697095475802463e-01
2.053769310534117043e-01 1.158697095475802463e-01
2.061638158467198056e-01 1.158697095475802463e-01
2.069507006400278792e-01 1.158697095475802463e-01
2.077375854333359806e-01 1.158697095475802463e-01
2.085244702266440819e-01 1.158697095475802463e-01
2.093113550199521555e-01 1.158697095475802463e-01
2.100982398132602569e-01 1.158697095475802463e-01
2.108851246065683305e-01 1.158697095475802463e-01
2.116720093998764318e-01 1.158697095475802463e-01
2.124588941931845332e-01 1.158697095475802463e-01
2.132457789864926068e-01 1.158697095475802463e-01
2.140326637798007081e-01 1.158697095475802463e-01
2.148195485731088095e-01 1.158697095475802463e-01
2.156064333664168831e-01 1.158697095475802463e-01
2.163933181597249844e-01 1.158697095475802463e-01
2.171802029530330580e-01 1.158697095475802463e-01
2.179670877463411593e-01 1.158697095475802463e-01
2.187539725396492607e-01 1.158697095475802463e-01
2.195408573329573343e-01 1.158697095475802463e-01
2.203277421262654356e-01 1.158697095475802463e-01
2.211146269195735370e-01 1.158697095475802463e-01
2.219015117128816106e-01 1.158697095475802463e-01
2.226883965061897119e-01 1.158697095475802463e-01
2.234752812994977855e-01 1.158697095475802463e-01
2.242621660928058869e-01 1.158697095475802463e-01
2.250490508861139882e-01 1.158697095475802463e-01
2.258359356794220618e-01 1.158697095475802463e-01
2.266228204727301632e-01 1.158697095475802463e-01
2.274097052660382368e-01 1.158697095475802463e-01
2.281965900593463381e-01 1.158697095475802463e-01
2.289834748526544395e-01 1.158697095475802463e-01
2.297703596459625131e-01 1.158697095475802463e-01
2.305572444392706144e-01 1.158697095475802463e-01
2.313441292325787157e-01 1.158697095475802463e-01
2.321310140258867893e-01 1.158697095475802463e-01
2.329178988191948907e-01 1.158697095475802463e-01
2.337047836125029643e-01 1.158697095475802463e-01
2.344916684058110656e-01 1.158697095475802463e-01
2.352785531991191670e-01 1.158697095475802463e-01
2.360654379924272406e-01 1.158697095475802463e-01
2.368523227857353419e-01 1.158697095475802463e-01
2.376392075790434433e-01 1.158697095475802463e-01
2.384260923723515169e-01 1.158697095475802463e-01
2.392129771656596182e-01 1.158697095475802463e-01
2.399998619589676918e-01 1.158697095475802463e-01
2.407867467522757932e-01 1.158697095475802463e-01
2.415736315455838945e-01 1.158697095475802463e-01
2.423605163388919681e-01 1.158697095475802463e-01
2.431474011322000695e-01 1.158697095475802463e-01
2.439342859255081708e-01 1.158697095475802463e-01
2.447211707188162444e-01 1.158697095475802463e-01
2.455080555121243457e-01 1.158697095475802463e-01
2.462949403054324193e-01 1.158697095475802463e-01
2.470818250987405207e-01 1.158697095475802463e-01
2.478687098920486220e-01 1.158697095475802463e-01
2.486555946853566956e-01 1.158697095475802463e-01
2.494424794786647970e-01 1.158697095475802463e-01
2.502293642719728983e-01 1.158697095475802463e-01
2.510162490652809719e-01 1.158697095475802463e-01
2.518031338585890455e-01 1.158697095475802463e-01
2.525900186518971746e-01 1.158697095475804684e-01
2.533769034452052482e-01 1.158697095475809125e-01
2.541637882385133218e-01 1.158697095475818006e-01
2.549506730318214509e-01 1.158697095475831329e-01
2.557375578251295245e-01 1.158697095475880179e-01
2.565244426184375981e-01 1.158697095475946792e-01
2.573113274117457272e-01 1.158697095476164396e-01
2.580982122050538008e-01 1.158697095476470817e-01
2.588850969983618744e-01 1.158697095477352335e-01
2.596719817916699480e-01 1.158697095478615768e-01
2.604588665849780771e-01 1.158697095481893147e-01
2.612457513782861507e-01 1.158697095486656004e-01
2.620326361715942243e-01 1.158697095497778218e-01
2.628195209649023534e-01 1.158697095514209519e-01
2.636064057582104270e-01 1.158697095548806288e-01
2.643932905515185006e-01 1.158697095600844662e-01
2.651801753448266297e-01 1.158697095700031987e-01
2.659670601381347033e-01 1.158697095851897174e-01
2.667539449314427769e-01 1.158697096116130254e-01
2.675408297247509060e-01 1.158697096527112613e-01
2.683277145180589796e-01 1.158697097188754466e-01
2.691145993113670531e-01 1.158697098229224398e-01
2.699014841046751823e-01 1.158697099809222752e-01
2.706883688979832558e-01 1.158697102301684545e-01
2.714752536912913294e-01 1.158697105954409334e-01
2.722621384845994030e-01 1.158697111678634872e-01
2.730490232779075321e-01 1.158697119949849696e-01
2.738359080712156057e-01 1.158697132711179467e-01
2.746227928645236793e-01 1.158697151148193605e-01
2.754096776578318084e-01 1.158697179007155409e-01
2.761965624511398820e-01 1.158697219403952428e-01
2.769834472444479556e-01 1.158697279162046456e-01
2.777703320377560847e-01 1.158697365787431099e-01
2.785572168310641583e-01 1.158697491598270624e-01
2.793441016243722319e-01 1.158697672756838770e-01
2.801309864176803610e-01 1.158697931973176054e-01
2.809178712109884346e-01 1.158698301039602363e-01
2.817047560042965082e-01 1.158698822483121837e-01
2.824916407976045818e-01 1.158699555339242071e-01
2.832785255909127109e-01 1.158700578426659078e-01
2.840654103842207845e-01 1.158701997886228963e-01
2.848522951775288581e-01 1.158703955302391453e-01
2.856391799708369872e-01 1.158706637197628453e-01
2.864260647641450608e-01 1.158710288609572370e-01
2.872129495574531344e-01 1.158715228975961686e-01
2.879998343507612635e-01 1.158721867858962806e-01
2.887867191440693371e-01 1.158730734874637847e-01
2.895736039373774107e-01 1.158742493058244616e-01
2.903604887306855398e-01 1.158757988965817276e-01
2.911473735239936134e-01 1.158778261087722861e-01
2.919342583173016870e-01 1.158804612824608782e-01
2.927211431106098161e-01 1.158838612487400610e-01
2.935080279039178897e-01 1.158882183976790436e-01
2.942949126972259632e-01 1.158937607367493960e-01
2.950817974905340368e-01 1.159007595097727439e-01
2.958686822838421659e-01 1.159095320481813296e-01
2.966555670771502395e-01 1.159204429395690461e-01
2.974424518704583131e-01 1.159339104313448221e-01
2.982293366637664422e-01 1.159503989520123124e-01
2.990162214570745158e-01 1.159704254680828939e-01
2.998031062503825894e-01 1.159945458354108005e-01
3.005899910436907185e-01 1.160233471335059274e-01
3.013768758369987921e-01 1.160574381301660019e-01
3.021637606303068657e-01 1.160974201144682194e-01
3.029506454236149948e-01 1.161438794180507106e-01
3.037375302169230684e-01 1.161973343162006067e-01
3.045244150102311420e-01 1.162582290448781475e-01
3.053112998035392156e-01 1.163268836932938033e-01
3.060981845968473447e-01 1.164034508273330548e-01
3.068850693901554183e-01 1.164879005321162175e-01
3.076719541834634919e-01 1.165799845141437530e-01
3.084588389767716210e-01 1.166792241353438175e-01
3.092457237700796946e-01 1.167849014386088680e-01
3.100326085633877682e-01 1.168961488924338266e-01
3.108194933566958973e-01 1.170120152036511207e-01
3.116063781500039709e-01 1.171314952323101455e-01
3.123932629433120445e-01 1.172538351234477805e-01
3.131801477366201736e-01 1.173788793196905988e-01
3.139670325299282472e-01 1.175071782548213761e-01
3.147539173232363208e-01 1.176406943449341824e-01
3.155408021165444499e-01 1.177832088307957381e-01
3.163276869098525235e-01 1.179410158030496092e-01
3.171145717031605971e-01 1.181240948654913581e-01
3.179014564964686707e-01 1.183465179774305653e-01
3.186883412897767998e-01 1.186273827979296147e-01
3.194752260830848734e-01 1.189926315104770094e-01
3.202621108763929469e-01 1.194757687800946933e-01
3.210489956697010761e-01 1.201183882552172566e-01
3.218358804630091496e-01 1.209728529408935493e-01
3.226227652563172232e-01 1.221012900588356320e-01
3.234096500496253523e-01 1.235776970549351539e-01
3.241965348429334259e-01 1.254888031477920940e-01
3.249834196362414995e-01 1.279327291421135104e-01
3.257703044295496286e-01 1.310199447048581156e-01
3.265571892228577022e-01 1.348724068167059809e-01
3.273440740161657758e-01 1.396212623093147087e-01
3.281309588094738494e-01 1.454062734996335315e-01
3.289178436027819785e-01 1.523702659882706367e-01
3.297047283960900521e-01 1.606587457490358251e-01
3.304916131893981257e-01 1.704145383825375060e-01
3.312784979827062548e-01 1.817708967279487720e-01
3.320653827760143284e-01 1.948461401166048379e-01
3.328522675693224020e-01 2.097432714615448113e-01
3.336391523626305311e-01 2.265342779287589092e-01
3.344260371559386047e-01 2.452612796685602614e-01
3.352129219492466783e-01 2.659258083227789005e-01
3.359998067425548074e-01 2.884853608306439110e-01
3.367866915358628810e-01 3.128511019660393799e-01
3.375735763291709546e-01 3.388752282924112347e-01
3.383604611224790837e-01 3.663601580137438862e-01
3.391473459157871573e-01 3.950508727654122865e-01
3.399342307090952309e-01 4.246337688828103474e-01
3.407211155024033045e-01 4.547538883719330904e-01
3.415080002957114336e-01 4.850022828642832629e-01
3.422948850890195072e-01 5.149405198861434219e-01
3.430817698823275808e-01 5.441014486794926164e-01
3.438686546756357099e-01 5.720022191575557802e-01
3.446555394689437835e-01 5.981618957858454433e-01
3.454424242622518570e-01 6.221129448958826469e-01
3.462293090555599862e-01 6.434123390884616267e-01
3.470161938488680597e-01 6.616641489506362994e-01
3.478030786421761333e-01 6.765321791008143126e-01
3.485899634354842624e-01 6.877353732632678351e-01
3.493768482287923360e-01 6.950784471047255497e-01
3.501637330221004096e-01 6.984538027866595833e-01
3.509506178154085387e-01 6.978357853084244944e-01
3.517375026087166123e-01 6.932837457909166723e-01
3.525243874020246859e-01 6.849437645736318192e-01
3.533112721953327595e-01 6.730350578934285455e-01
3.540981569886408886e-01 6.578411709440077360e-01
3.548850417819489622e-01 6.396961930994462531e-01
3.556719265752570358e-01 6.189692500406722697e-01
3.564588113685651649e-01 5.960478471505694653e-01
3.572456961618732385e-01 5.713150863417610914e-01
3.580325809551813121e-01 5.451481344147810493e-01
3.588194657484894412e-01 5.178883560423963583e-01
3.596063505417975148e-01 4.898418881352946119e-01
3.603932353351055884e-01 4.612453693561451296e-01
3.611801201284137175e-01 4.322948498591343558e-01
3.619670049217217911e-01 4.031151584533729793e-01
3.627538897150298647e-01 3.737618171551830848e-01
3.635407745083379383e-01 3.442633527936405091e-01
3.643276593016460674e-01 3.145797512259476125e-01
3.651145440949541410e-01 2.846436202116029435e-01
3.659014288882622146e-01 2.543691878081502100e-01
3.666883136815703437e-01 2.236724051701910465e-01
3.674751984748784173e-01 1.924678832657265026e-01
3.682620832681864909e-01 1.607043120934656955e-01
3.690489680614946200e-01 1.283596743021087061e-01
3.698358528548026936e-01 9.545790179524216157e-02
3.706227376481107672e-01 6.207959722414813086e-02
3.714096224414188963e-01 2.835705615185624140e-02
3.721965072347269698e-01 -5.524201305025844277e-03
3.729833920280350434e-01 -3.931758081193581500e-02
3.737702768213431725e-01 -7.274394064543288074e-02
3.745571616146512461e-01 -1.054894856856822827e-01
3.753440464079593197e-01 -1.372157230883470636e-01
3.761309312012673933e-01 -1.675868403822921016e-01
3.769178159945755224e-01 -1.962605156186064681e-01
3.777047007878835960e-01 -2.229308033418319068e-01
3.784915855811916696e-01 -2.473061172386622486e-01
3.792784703744997987e-01 -2.691681983483827922e-01
3.800653551678078723e-01 -2.883322923753003364e-01
3.808522399611159459e-01 -3.046677311258290111e-01
3.816391247544240750e-01 -3.181476151403369590e-01
3.824260095477321486e-01 -3.287742418815683410e-01
3.832128943410402222e-01 -3.366190720136347236e-01
3.839997791343483513e-01 -3.418116728625567591e-01
3.847866639276564249e-01 -3.445323055091289444e-01
3.855735487209644985e-01 -3.449975357318876279e-01
3.863604335142725721e-01 -3.434440620232614982e-01
3.871473183075807012e-01 -3.401312703202802323e-01
3.879342031008887748e-01 -3.353223457496675719e-01
3.887210878941968484e-01 -3.292720254761815069e-01
3.895079726875049775e-01 -3.222390133775990817e-01
3.902948574808130511e-01 -3.144344367073663715e-01
3.910817422741211247e-01 -3.060396035670598369e-01
3.918686270674292538e-01 -2.972135175241125138e-01
3.926555118607373274e-01 -2.880809116600206998e-01
3.934423966540454010e-01 -2.787313870218148804e-01
3.942292814473535301e-01 -2.692066808493509544e-01
3.950161662406616037e-01 -2.595307250462161042e-01
3.958030510339696773e-01 -2.496906921120876088e-01
3.965899358272778064e-01 -2.396660963374950271e-01
3.973768206205858800e-01 -2.293918429446809570e-01
3.981637054138939535e-01 -2.188170048428121905e-01
3.989505902072020271e-01 -2.078776359855035727e-01
3.997374750005101562e-01 -1.965140023414017056e-01
4.005243597938182298e-01 -1.846694331628121466e-01
4.013112445871263034e-01 -1.722891722543273829e-01
4.020981293804344325e-01 -1.593479475257594258e-01
4.028850141737425061e-01 -1.458201039764628337e-01
4.036718989670505797e-01 -1.317056416064376068e-01
4.044587837603587088e-01 -1.170148989980334120e-01
4.052456685536667824e-01 -1.017827210028731111e-01
4.060325533469748560e-01 -8.605735433858852090e-02
4.068194381402829851e-01 -6.990389378293659917e-02
4.076063229335910587e-01 -5.338973157641890843e-02
4.083932077268991323e-01 -3.661289279612844894e-02
4.091800925202072059e-01 -1.967293416098792047e-02
4.099669773135153350e-01 -2.660222538942380588e-03
4.107538621068234086e-01 1.429428669357912796e-02
4.115407469001314822e-01 3.107342293661408128e-02
4.123276316934396113e-01 4.754393335098860973e-02
4.131145164867476849e-01 6.357179927661515961e-02
4.139014012800557585e-01 7.903142608346791498e-02
4.146882860733638876e-01 9.378343436505520714e-02
4.154751708666719612e-01 1.076570460573791355e-01
4.162620556599800348e-01 1.205082868284594877e-01
4.170489404532881639e-01 1.321763342861901336e-01
4.178358252465962375e-01 1.424819863365103245e-01
4.186227100399043111e-01 1.512659522291444070e-01
4.194095948332124402e-01 1.583597513628380860e-01
4.201964796265205138e-01 1.635803525389571966e-01
4.209833644198285874e-01 1.667286423196563394e-01
4.217702492131366609e-01 1.676621780147844465e-01
4.225571340064447901e-01 1.662163081276621934e-01
4.233440187997528636e-01 1.622371026544167094e-01
4.241309035930609372e-01 1.555805872630675601e-01
4.249177883863690663e-01 1.461441419510332018e-01
4.257046731796771399e-01 1.338634377614709159e-01
4.264915579729852135e-01 1.186856330512606750e-01
4.272784427662933426e-01 1.006114936413171623e-01
4.280653275596014162e-01 7.967012072640211606e-02
4.288522123529094898e-01 5.595034953263144928e-02
4.296390971462176189e-01 2.959002782466702008e-02
4.304259819395256925e-01 7.783133684617915549e-04
4.312128667328337661e-01 -3.025428174063249376e-02
4.319997515261418397e-01 -6.321521391316631266e-02
4.327866363194499688e-01 -9.777824343943952723e-02
4.335735211127580424e-01 -1.335780737430976028e-01
4.343604059060661160e-01 -1.702088197393021307e-01
4.351472906993742451e-01 -2.072477482830893392e-01
4.359341754926823187e-01 -2.442598730948589703e-01
4.367210602859903923e-01 -2.807956572976295639e-01
4.375079450792985214e-01 -3.164032665516754994e-01
4.382948298726065950e-01 -3.506691575630104252e-01
4.390817146659146686e-01 -3.831912743513700148e-01
4.398685994592227977e-01 -4.135851748175299880e-01
4.406554842525308713e-01 -4.415368723864266931e-01
4.414423690458389449e-01 -4.667591842150141668e-01
4.422292538391470740e-01 -4.890284905961739259e-01
4.430161386324551476e-01 -5.081609945103563453e-01
4.438030234257632212e-01 -5.240525443131502925e-01
4.445899082190712948e-01 -5.366502983614351852e-01
4.453767930123794239e-01 -5.459473642669779858e-01
4.461636778056874975e-01 -5.519965836728990549e-01
4.469505625989955711e-01 -5.549009594922378330e-01
4.477374473923037002e-01 -5.548086780720056232e-01
4.485243321856117737e-01 -5.518828592670528277e-01
4.493112169789198473e-01 -5.463444424112962050e-01
4.500981017722279764e-01 -5.384143668386525139e-01
4.508849865655360500e-01 -5.283419072568854569e-01
4.516718713588441236e-01 -5.163828478515348763e-01
4.524587561521522527e-01 -5.027899095244812155e-01
4.532456409454603263e-01 -4.877955189233630362e-01
4.540325257387683999e-01 -4.716520140396033289e-01
4.548194105320764735e-01 -4.545922044312983301e-01
4.556062953253846026e-01 -4.368109915212615713e-01
4.563931801186926762e-01 -4.185124665832846702e-01
4.571800649120007498e-01 -3.998551545467290413e-01
4.579669497053088789e-01 -3.809834126540323496e-01
4.587538344986169525e-01 -3.620348972146280042e-01
4.595407192919250261e-01 -3.430963374471158733e-01
4.603276040852331552e-01 -3.242364657785984372e-01
4.611144888785412288e-01 -3.055222915391195837e-01
4.619013736718493024e-01 -2.869723858858631571e-01
4.626882584651574315e-01 -2.686118294537882534e-01
4.634751432584655051e-01 -2.503994593687252079e-01
4.642620280517735787e-01 -2.323193848466920119e-01
4.650489128450817078e-01 -2.143564809246215619e-01
4.658357976383897814e-01 -1.964159772643087054e-01
4.666226824316978550e-01 -1.784350765507406456e-01
4.674095672250059286e-01 -1.603500241927613423e-01
4.681964520183140577e-01 -1.420679644044524625e-01
4.689833368116221313e-01 -1.235130809152498177e-01
4.697702216049302049e-01 -1.045883059242038726e-01