0.000000000000000000e+00 5.033766240728241304e-01
7.868847933080908323e-04 1.158697095475802463e-01
1.573769586616181665e-03 1.158697095475802463e-01
2.360654379924272388e-03 1.158697095475802463e-01
3.147539173232363329e-03 1.158697095475802463e-01
3.934423966540453836e-03 1.158697095475802463e-01
4.721308759848544777e-03 1.158697095475802463e-01
5.508193553156635718e-03 1.158697095475802463e-01
6.295078346464726658e-03 1.158697095475802463e-01
7.081963139772817599e-03 1.158697095475802463e-01
7.868847933080907672e-03 1.158697095475802463e-01
8.655732726388998613e-03 1.158697095475802463e-01
9.442617519697089554e-03 1.158697095475802463e-01
1.022950231300518049e-02 1.158697095475802463e-01
1.101638710631327144e-02 1.158697095475802463e-01
1.180327189962136238e-02 1.158697095475802463e-01
1.259015669292945332e-02 1.158697095475802463e-01
1.337704148623754426e-02 1.158697095475802463e-01
1.416392627954563520e-02 1.158697095475802463e-01
1.495081107285372614e-02 1.158697095475802463e-01
1.573769586616181534e-02 1.158697095475802463e-01
1.652458065946990629e-02 1.158697095475802463e-01
1.731146545277799723e-02 1.158697095475802463e-01
1.809835024608608817e-02 1.158697095475802463e-01
1.888523503939417911e-02 1.158697095475802463e-01
1.967211983270227005e-02 1.158697095475802463e-01
2.045900462601036099e-02 1.158697095475802463e-01
2.124588941931845193e-02 1.158697095475802463e-01
2.203277421262654287e-02 1.158697095475802463e-01
2.281965900593463381e-02 1.158697095475802463e-01
2.360654379924272475e-02 1.158697095475802463e-01
2.439342859255081569e-02 1.158697095475802463e-01
2.518031338585890663e-02 1.158697095475802463e-01
2.596719817916699757e-02 1.158697095475802463e-01
2.675408297247508851e-02 1.158697095475802463e-01
2.754096776578317946e-02 1.158697095475802463e-01
2.832785255909127040e-02 1.158697095475802463e-01
2.911473735239936134e-02 1.158697095475802463e-01
2.990162214570745228e-02 1.158697095475802463e-01
3.068850693901554322e-02 1.158697095475802463e-01
3.147539173232363069e-02 1.158697095475802463e-01
3.226227652563172510e-02 1.158697095475802463e-01
3.304916131893981257e-02 1.158697095475802463e-01
3.383604611224790698e-02 1.158697095475802463e-01
3.462293090555599445e-02 1.158697095475802463e-01
3.540981569886408886e-02 1.158697095475802463e-01
3.619670049217217633e-02 1.158697095475802463e-01
3.698358528548027074e-02 1.158697095475802463e-01
3.777047007878835821e-02 1.158697095475802463e-01
3.855735487209645262e-02 1.158697095475802463e-01
3.934423966540454010e-02 1.158697095475802463e-01
4.013112445871263451e-02 1.158697095475802463e-01
4.091800925202072198e-02 1.158697095475802463e-01
4.170489404532881639e-02 1.158697095475802463e-01
4.249177883863690386e-02 1.158697095475802463e-01
4.327866363194499827e-02 1.158697095475802463e-01
4.406554842525308574e-02 1.158697095475802463e-01
4.485243321856118015e-02 1.158697095475802463e-01
4.563931801186926762e-02 1.158697095475802463e-01
4.642620280517736203e-02 1.158697095475802463e-01
4.721308759848544950e-02 1.158697095475802463e-01
4.799997239179354391e-02 1.158697095475802463e-01
4.878685718510163138e-02 1.158697095475802463e-01
4.957374197840972579e-02 1.158697095475802463e-01
5.036062677171781327e-02 1.158697095475802463e-01
5.114751156502590074e-02 1.158697095475802463e-01
5.193439635833399515e-02 1.158697095475802463e-01
5.272128115164208262e-02 1.158697095475802463e-01
5.350816594495017703e-02 1.158697095475802463e-01
5.429505073825826450e-02 1.158697095475802463e-01
5.508193553156635891e-02 1.158697095475802463e-01
5.586882032487444638e-02 1.158697095475802463e-01
5.665570511818254079e-02 1.158697095475802463e-01
5.744258991149062826e-02 1.158697095475802463e-01
5.822947470479872267e-02 1.158697095475802463e-01
5.901635949810681014e-02 1.158697095475802463e-01
5.980324429141490455e-02 1.158697095475802463e-01
6.059012908472299203e-02 1.158697095475802463e-01
6.137701387803108644e-02 1.158697095475802463e-01
6.216389867133917391e-02 1.158697095475802463e-01
6.295078346464726138e-02 1.158697095475802463e-01
6.373766825795536273e-02 1.158697095475802463e-01
6.452455305126345020e-02 1.158697095475802463e-01
6.531143784457153767e-02 1.158697095475802463e-01
6.609832263787962514e-02 1.158697095475802463e-01
6.688520743118772649e-02 1.158697095475802463e-01
6.767209222449581396e-02 1.158697095475802463e-01
6.845897701780390143e-02 1.158697095475802463e-01
6.924586181111198890e-02 1.158697095475802463e-01
7.003274660442009025e-02 1.158697095475802463e-01
7.081963139772817772e-02 1.158697095475802463e-01
7.160651619103626520e-02 1.158697095475802463e-01
7.239340098434435267e-02 1.158697095475802463e-01
7.318028577765245402e-02 1.158697095475802463e-01
7.396717057096054149e-02 1.158697095475802463e-01
7.475405536426862896e-02 1.158697095475802463e-01
7.554094015757671643e-02 1.158697095475802463e-01
7.632782495088480390e-02 1.158697095475802463e-01
7.711470974419290525e-02 1.158697095475802463e-01
7.790159453750099272e-02 1.158697095475802463e-01
7.868847933080908019e-02 1.158697095475802463e-01
7.947536412411716766e-02 1.158697095475802463e-01
8.026224891742526901e-02 1.158697095475802463e-01
8.104913371073335648e-02 1.158697095475802463e-01
8.183601850404144396e-02 1.158697095475802463e-01
8.262290329734953143e-02 1.158697095475802463e-01
8.340978809065763278e-02 1.158697095475802463e-01
8.419667288396572025e-02 1.158697095475802463e-01
8.498355767727380772e-02 1.158697095475802463e-01
8.577044247058189519e-02 1.158697095475802463e-01
8.655732726388999654e-02 1.158697095475802463e-01
8.734421205719808401e-02 1.158697095475802463e-01
8.813109685050617148e-02 1.158697095475802463e-01
8.891798164381425895e-02 1.158697095475802463e-01
8.970486643712236030e-02 1.158697095475802463e-01
9.049175123043044777e-02 1.158697095475802463e-01
9.127863602373853524e-02 1.158697095475802463e-01
9.206552081704662271e-02 1.158697095475802463e-01
9.285240561035472406e-02 1.158697095475802463e-01
9.363929040366281153e-02 1.158697095475802463e-01
9.442617519697089901e-02 1.158697095475802463e-01
9.521305999027898648e-02 1.158697095475802463e-01
9.599994478358708783e-02 1.158697095475802463e-01
9.678682957689517530e-02 1.158697095475802463e-01
9.757371437020326277e-02 1.158697095475802463e-01
9.836059916351135024e-02 1.158697095475802463e-01
9.914748395681945159e-02 1.158697095475802463e-01
9.993436875012753906e-02 1.158697095475802463e-01
1.007212535434356265e-01 1.158697095475802463e-01
1.015081383367437140e-01 1.158697095475802463e-01
1.022950231300518015e-01 1.158697095475802463e-01
1.030819079233599028e-01 1.158697095475802463e-01
1.038687927166679903e-01 1.158697095475802463e-01
1.046556775099760778e-01 1.158697095475802463e-01
1.054425623032841652e-01 1.158697095475802463e-01
1.062294470965922666e-01 1.158697095475802463e-01
1.070163318899003541e-01 1.158697095475802463e-01
1.078032166832084415e-01 1.158697095475802463e-01
1.085901014765165290e-01 1.158697095475802463e-01
1.093769862698246303e-01 1.158697095475802463e-01
1.101638710631327178e-01 1.158697095475802463e-01
1.109507558564408053e-01 1.158697095475802463e-01
1.117376406497488928e-01 1.158697095475802463e-01
1.125245254430569941e-01 1.158697095475802463e-01
1.133114102363650816e-01 1.158697095475802463e-01
1.140982950296731691e-01 1.158697095475802463e-01
1.148851798229812565e-01 1.158697095475802463e-01
1.156720646162893579e-01 1.158697095475802463e-01
1.164589494095974453e-01 1.158697095475802463e-01
1.172458342029055328e-01 1.158697095475802463e-01
1.180327189962136203e-01 1.158697095475802463e-01
1.188196037895217216e-01 1.158697095475802463e-01
1.196064885828298091e-01 1.158697095475802463e-01
1.203933733761378966e-01 1.158697095475802463e-01
1.211802581694459841e-01 1.158697095475802463e-01
1.219671429627540854e-01 1.158697095475802463e-01
1.227540277560621729e-01 1.158697095475802463e-01
1.235409125493702603e-01 1.158697095475802463e-01
1.243277973426783478e-01 1.158697095475802463e-01
1.251146821359864492e-01 1.158697095475802463e-01
1.259015669292945228e-01 1.158697095475802463e-01
1.266884517226026241e-01 1.158697095475802463e-01
1.274753365159107255e-01 1.158697095475802463e-01
1.282622213092187990e-01 1.158697095475802463e-01
1.290491061025269004e-01 1.158697095475802463e-01
1.298359908958349740e-01 1.158697095475802463e-01
1.306228756891430753e-01 1.158697095475802463e-01
1.314097604824511767e-01 1.158697095475802463e-01
1.321966452757592503e-01 1.158697095475802463e-01
1.329835300690673516e-01 1.158697095475802463e-01
1.337704148623754530e-01 1.158697095475802463e-01
1.345572996556835266e-01 1.158697095475802463e-01
1.353441844489916279e-01 1.158697095475802463e-01
1.361310692422997015e-01 1.158697095475802463e-01
1.369179540356078029e-01 1.158697095475802463e-01
1.377048388289159042e-01 1.158697095475802463e-01
1.384917236222239778e-01 1.158697095475802463e-01
1.392786084155320792e-01 1.158697095475802463e-01
1.400654932088401805e-01 1.158697095475802463e-01
1.408523780021482541e-01 1.158697095475802463e-01
1.416392627954563554e-01 1.158697095475802463e-01
1.424261475887644290e-01 1.158697095475802463e-01
1.432130323820725304e-01 1.158697095475802463e-01
1.439999171753806317e-01 1.158697095475802463e-01
1.447868019686887053e-01 1.158697095475802463e-01
1.455736867619968067e-01 1.158697095475802463e-01
1.463605715553049080e-01 1.158697095475802463e-01
1.471474563486129816e-01 1.158697095475802463e-01
1.479343411419210830e-01 1.158697095475802463e-01
1.487212259352291566e-01 1.158697095475802463e-01
1.495081107285372579e-01 1.158697095475802463e-01
1.502949955218453593e-01 1.158697095475802463e-01
1.510818803151534329e-01 1.158697095475802463e-01
1.518687651084615342e-01 1.158697095475802463e-01
1.526556499017696078e-01 1.158697095475802463e-01
1.534425346950777092e-01 1.158697095475802463e-01
1.542294194883858105e-01 1.158697095475802463e-01
1.550163042816938841e-01 1.158697095475802463e-01
1.558031890750019854e-01 1.158697095475802463e-01
1.565900738683100868e-01 1.158697095475802463e-01
1.573769586616181604e-01 1.158697095475802463e-01
1.581638434549262617e-01 1.158697095475802463e-01
1.589507282482343353e-01 1.158697095475802463e-01
1.597376130415424367e-01 1.158697095475802463e-01
1.605244978348505380e-01 1.158697095475802463e-01
1.613113826281586116e-01 1.158697095475802463e-01
1.620982674214667130e-01 1.158697095475802463e-01
1.628851522147748143e-01 1.158697095475802463e-01
1.636720370080828879e-01 1.158697095475802463e-01
1.644589218013909893e-01 1.158697095475802463e-01
1.652458065946990629e-01 1.158697095475802463e-01
1.660326913880071642e-01 1.158697095475802463e-01
1.668195761813152656e-01 1.158697095475802463e-01
1.676064609746233391e-01 1.158697095475802463e-01
1.683933457679314405e-01 1.158697095475802463e-01
1.691802305612395418e-01 1.158697095475802463e-01
1.699671153545476154e-01 1.158697095475802463e-01
1.707540001478557168e-01 1.158697095475802463e-01
1.715408849411637904e-01 1.158697095475802463e-01
1.723277697344718917e-01 1.158697095475802463e-01
1.731146545277799931e-01 1.158697095475802463e-01
1.739015393210880667e-01 1.158697095475802463e-01
1.746884241143961680e-01 1.158697095475802463e-01
1.754753089077042694e-01 1.158697095475802463e-01
1.762621937010123430e-01 1.158697095475802463e-01
1.770490784943204443e-01 1.158697095475802463e-01
1.778359632876285179e-01 1.158697095475802463e-01
1.786228480809366193e-01 1.158697095475802463e-01
1.794097328742447206e-01 1.158697095475802463e-01
1.801966176675527942e-01 1.158697095475802463e-01
1.809835024608608955e-01 1.158697095475802463e-01
1.817703872541689691e-01 1.158697095475802463e-01
1.825572720474770705e-01 1.158697095475802463e-01
1.833441568407851718e-01 1.158697095475802463e-01
1.841310416340932454e-01 1.158697095475802463e-01
1.849179264274013468e-01 1.158697095475802463e-01
1.857048112207094481e-01 1.158697095475802463e-01
1.864916960140175217e-01 1.158697095475802463e-01
1.872785808073256231e-01 1.158697095475802463e-01
1.880654656006336967e-01 1.158697095475802463e-01
1.888523503939417980e-01 1.158697095475802463e-01
1.896392351872498994e-01 1.158697095475802463e-01
1.904261199805579730e-01 1.158697095475802463e-01
1.912130047738660743e-01 1.158697095475802463e-01
1.919998895671741757e-01 1.158697095475802463e-01
1.927867743604822492e-01 1.158697095475802463e-01
1.935736591537903506e-01 1.158697095475802463e-01
1.943605439470984242e-01 1.158697095475802463e-01
1.951474287404065255e-01 1.158697095475802463e-01
1.959343135337146269e-01 1.158697095475802463e-01
1.967211983270227005e-01 1.158697095475802463e-01
1.975080831203308018e-01 1.158697095475802463e-01
1.982949679136389032e-01 1.158697095475802463e-01
1.990818527069469768e-01 1.158697095475802463e-01
1.998687375002550781e-01 1.158697095475802463e-01
2.006556222935631517e-01 1.158697095475802463e-01
2.014425070868712531e-01 1.158697095475802463e-01
2.022293918801793544e-01 1.158697095475802463e-01
2.030162766734874280e-01 1.158697095475802463e-01
2.038031614667955294e-01 1.158697095475802463e-01
2.045900462601036029e-01 1.158697095475802463e-01
2.053769310534117043e-01 1.158697095475802463e-01
2.061638158467198056e-01 1.158697095475802463e-01
2.069507006400278792e-01 1.158697095475802463e-01
2.077375854333359806e-01 1.158697095475802463e-01
2.085244702266440819e-01 1.158697095475802463e-01
2.093113550199521555e-01 1.158697095475802463e-01
2.100982398132602569e-01 1.158697095475802463e-01
2.108851246065683305e-01 1.158697095475802463e-01
2.116720093998764318e-01 1.158697095475802463e-01
2.124588941931845332e-01 1.158697095475802463e-01
2.132457789864926068e-01 1.158697095475802463e-01
2.140326637798007081e-01 1.158697095475802463e-01
2.148195485731088095e-01 1.158697095475802463e-01
2.156064333664168831e-01 1.158697095475802463e-01
2.163933181597249844e-01 1.158697095475802463e-01
2.171802029530330580e-01 1.158697095475802463e-01
2.179670877463411593e-01 1.158697095475802463e-01
2.187539725396492607e-01 1.158697095475802463e-01
2.195408573329573343e-01 1.158697095475802463e-01
2.203277421262654356e-01 1.158697095475802463e-01
2.211146269195735370e-01 1.158697095475802463e-01
2.219015117128816106e-01 1.158697095475802463e-01
2.226883965061897119e-01 1.158697095475802463e-01
2.234752812994977855e-01 1.158697095475802463e-01
2.242621660928058869e-01 1.158697095475802463e-01
2.250490508861139882e-01 1.158697095475802463e-01
2.258359356794220618e-01 1.158697095475802463e-01
2.266228204727301632e-01 1.158697095475802463e-01
2.274097052660382368e-01 1.158697095475802463e-01
2.281965900593463381e-01 1.158697095475802463e-01
2.289834748526544395e-01 1.158697095475802463e-01
2.297703596459625131e-01 1.158697095475802463e-01
2.305572444392706144e-01 1.158697095475802463e-01
2.313441292325787157e-01 1.158697095475802463e-01
2.321310140258867893e-01 1.158697095475802463e-01
2.329178988191948907e-01 1.158697095475802463e-01
2.337047836125029643e-01 1.158697095475802463e-01
2.344916684058110656e-01 1.158697095475802463e-01
2.352785531991191670e-01 1.158697095475802463e-01
2.360654379924272406e-01 1.158697095475802463e-01
2.368523227857353419e-01 1.158697095475802463e-01
2.376392075790434433e-01 1.158697095475802463e-01
2.384260923723515169e-01 1.158697095475802463e-01
2.392129771656596182e-01 1.158697095475802463e-01
2.399998619589676918e-01 1.158697095475802463e-01
2.407867467522757932e-01 1.158697095475802463e-01
2.415736315455838945e-01 1.158697095475802463e-01
2.423605163388919681e-01 1.158697095475802463e-01
2.431474011322000695e-01 1.158697095475802463e-01
2.439342859255081708e-01 1.158697095475802463e-01
2.447211707188162444e-01 1.158697095475802463e-01
2.455080555121243457e-01 1.158697095475802463e-01
2.462949403054324193e-01 1.158697095475802463e-01
2.470818250987405207e-01 1.158697095475802463e-01
2.478687098920486220e-01 1.158697095475802463e-01
2.486555946853566956e-01 1.158697095475802463e-01
2.494424794786647970e-01 1.158697095475802463e-01
2.502293642719728983e-01 1.158697095475802463e-01
2.510162490652809719e-01 1.158697095475802463e-01
2.518031338585890455e-01 1.158697095475802463e-01
2.525900186518971746e-01 1.158697095475800243e-01
2.533769034452052482e-01 1.158697095475800243e-01
2.541637882385133218e-01 1.158697095475791361e-01
2.549506730318214509e-01 1.158697095475780259e-01
2.557375578251295245e-01 1.158697095475735850e-01
2.565244426184375981e-01 1.158697095475682559e-01
2.573113274117457272e-01 1.158697095475482719e-01
2.580982122050538008e-01 1.158697095475234029e-01
2.588850969983618744e-01 1.158697095474405803e-01
2.596719817916699480e-01 1.158697095473351091e-01
2.604588665849780771e-01 1.158697095470155869e-01
2.612457513782861507e-01 1.158697095466045823e-01
2.620326361715942243e-01 1.158697095454723769e-01
2.628195209649023534e-01 1.158697095439933378e-01
2.636064057582104270e-01 1.158697095402902999e-01
2.643932905515185006e-01 1.158697095353633522e-01
2.651801753448266297e-01 1.158697095241416619e-01
2.659670601381347033e-01 1.158697095088925266e-01
2.667539449314427769e-01 1.158697094772016545e-01
2.675408297247509060e-01 1.158697094331377908e-01
2.683277145180589796e-01 1.158697093490723695e-01
2.691145993113670531e-01 1.158697092294553865e-01
2.699014841046751823e-01 1.158697090179181544e-01
2.706883688979832558e-01 1.158697087105522439e-01
2.714752536912913294e-01 1.158697081999962020e-01
2.722621384845994030e-01 1.158697074460446341e-01
2.730490232779075321e-01 1.158697062515761100e-01
2.738359080712156057e-01 1.158697044710979007e-01
2.746227928645236793e-01 1.158697017405423413e-01
2.754096776578318084e-01 1.158696976628450503e-01
2.761965624511398820e-01 1.158696915385475368e-01
2.769834472444479556e-01 1.158696824342766440e-01
2.777703320377560847e-01 1.158696689492781928e-01
2.785572168310641583e-01 1.158696490771273790e-01
2.793441016243722319e-01 1.158696199645303793e-01
2.801309864176803610e-01 1.158695775179565679e-01
2.809178712109884346e-01 1.158695159842144662e-01
2.817047560042965082e-01 1.158694272635178990e-01
2.824916407976045818e-01 1.158693000336219470e-01
2.832785255909127109e-01 1.158691186169678033e-01
2.840654103842207845e-01 1.158688613307456983e-01
2.848522951775288581e-01 1.158684984988984645e-01
2.856391799708369872e-01 1.158679896421241917e-01
2.864260647641450608e-01 1.158672799598110537e-01
2.872129495574531344e-01 1.158662957339837707e-01
2.879998343507612635e-01 1.158649383580125924e-01
2.887867191440693371e-01 1.158630768871085071e-01
2.895736039373774107e-01 1.158605384985720299e-01
2.903604887306855398e-01 1.158570966164047533e-01
2.911473735239936134e-01 1.158524560940958903e-01
2.919342583173016870e-01 1.158462352481652857e-01
2.927211431106098161e-01 1.158379434278473674e-01
2.935080279039178897e-01 1.158269549213697402e-01
2.942949126972259632e-01 1.158124762599255231e-01
2.950817974905340368e-01 1.157935102730747179e-01
2.958686822838421659e-01 1.157688092766329113e-01
2.966555670771502395e-01 1.157368289616884649e-01
2.974424518704583131e-01 1.156956664614545716e-01
2.982293366637664422e-01 1.156429992594751877e-01
2.990162214570745158e-01 1.155760119916546813e-01
2.998031062503825894e-01 1.154913222199636103e-01
3.005899910436907185e-01 1.153848933053516213e-01
3.013768758369987921e-01 1.152519598075165685e-01
3.021637606303068657e-01 1.150869343748432971e-01
3.029506454236149948e-01 1.148833307135876947e-01
3.037375302169230684e-01 1.146336985230138605e-01
3.045244150102311420e-01 1.143295479603245735e-01
3.053112998035392156e-01 1.139613227172684429e-01
3.060981845968473447e-01 1.135183850627012880e-01
3.068850693901554183e-01 1.129890412702327929e-01
3.076719541834634919e-01 1.123605984564974847e-01
3.084588389767716210e-01 1.116194932151377550e-01
3.092457237700796946e-01 1.107514770890554168e-01
3.100326085633877682e-01 1.097418499064717334e-01
3.108194933566958973e-01 1.085758396998977027e-01
3.116063781500039709e-01 1.072389557017114914e-01
3.123932629433120445e-01 1.057175926247233555e-01
3.131801477366201736e-01 1.039995332321523858e-01
3.139670325299282472e-01 1.020747620223472207e-01
3.147539173232363208e-01 9.993623104970161819e-02
3.155408021165444499e-01 9.758082916674903906e-02
3.163276869098525235e-01 9.501004015151193194e-02
3.171145717031605971e-01 9.223135468981302765e-02
3.179014564964686707e-01 8.925934731093709829e-02
3.186883412897767998e-01 8.611641827664162641e-02
3.194752260830848734e-01 8.283425342727590568e-02
3.202621108763929469e-01 7.945454213888902828e-02
3.210489956697010761e-01 7.603046110125144530e-02
3.218358804630091496e-01 7.262696150069891665e-02
3.226227652563172232e-01 6.932196561531100976e-02
3.234096500496253523e-01 6.620756341009137458e-02
3.241965348429334259e-01 6.338934244366667414e-02
3.249834196362414995e-01 6.098638786828636249e-02
3.257703044295496286e-01 5.913290979926721924e-02
3.265571892228577022e-01 5.797575439702051803e-02
3.273440740161657758e-01 5.767765860593887517e-02
3.281309588094738494e-01 5.841016631093487455e-02
3.289178436027819785e-01 6.035841471815905912e-02
3.297047283960900521e-01 6.371577360859559391e-02
3.304916131893981257e-01 6.868327097237658663e-02
3.312784979827062548e-01 7.546576390420867142e-02
3.320653827760143284e-01 8.427078987199920768e-02
3.328522675693224020e-01 9.530588634365644296e-02
3.336391523626305311e-01 1.087682522047386247e-01
3.344260371559386047e-01 1.248478110421133991e-01
3.352129219492466783e-01 1.437195529348100909e-01
3.359998067425548074e-01 1.655331958716701468e-01
3.367866915358628810e-01 1.904089737363152679e-01
3.375735763291709546e-01 2.184403166803501328e-01
3.383604611224790837e-01 2.496701106750027765e-01
3.391473459157871573e-01 2.840952924366137999e-01
3.399342307090952309e-01 3.216526817397133975e-01
3.407211155024033045e-01 3.622090257451282547e-01
3.415080002957114336e-01 4.055659768359276551e-01
3.422948850890195072e-01 4.514325230644917752e-01
3.430817698823275808e-01 4.994372412871477263e-01
3.438686546756357099e-01 5.491206389550220557e-01
3.446555394689437835e-01 5.999251984421478667e-01
3.454424242622518570e-01 6.512083960010170980e-01
3.462293090555599862e-01 7.022312144488580543e-01
3.470161938488680597e-01 7.521772886905051525e-01
3.478030786421761333e-01 8.001590322857174975e-01
3.485899634354842624e-01 8.452367829720486281e-01
3.493768482287923360e-01 8.864241634112497437e-01
3.501637330221004096e-01 9.227271380559243230e-01
3.509506178154085387e-01 9.531509055377611617e-01
3.517375026087166123e-01 9.767504428479099055e-01
3.525243874020246859e-01 9.926305053369819387e-01
3.533112721953327595e-01 1.000000000000000000e+00
3.540981569886408886e-01 9.981934284620119779e-01
3.548850417819489622e-01 9.866969248891941380e-01
3.556719265752570358e-01 9.651735280790392224e-01
3.564588113685651649e-01 9.334930484760330938e-01
3.572456961618732385e-01 8.917412580226322660e-01
3.580325809551813121e-01 8.402210388906357075e-01
3.588194657484894412e-01 7.794676998994811701e-01
3.596063505417975148e-01 7.102443815907564240e-01
3.603932353351055884e-01 6.335194645112125489e-01
3.611801201284137175e-01 5.504324901820563110e-01
3.619670049217217911e-01 4.623052655022137358e-01
3.627538897150298647e-01 3.705721730450852736e-01
3.635407745083379383e-01 2.767457091173803896e-01
3.643276593016460674e-01 1.823850851016097785e-01
3.651145440949541410e-01 8.905870223126233221e-02
3.659014288882622146e-01 -1.730898858845475452e-03
3.666883136815703437e-01 -8.857135294661322433e-02
3.674751984748784173e-01 -1.701707201487913101e-01
3.682620832681864909e-01 -2.454099446536438522e-01
3.690489680614946200e-01 -3.133672652626073862e-01
3.698358528548026936e-01 -3.733263522375109833e-01
3.706227376481107672e-01 -4.247977502861897126e-01
3.714096224414188963e-01 -4.675086117758463500e-01
3.721965072347269698e-01 -5.014348911263517561e-01
3.729833920280350434e-01 -5.267392594693636187e-01
3.737702768213431725e-01 -5.437922484851464011e-01
3.745571616146512461e-01 -5.531164172715017369e-01
3.753440464079593197e-01 -5.553817992991111341e-01
3.761309312012673933e-01 -5.513609523136240309e-01
3.769178159945755224e-01 -5.418948314411413669e-01
3.777047007878835960e-01 -5.278620247261556209e-01
3.784915855811916696e-01 -5.101657222100461908e-01
3.792784703744997987e-01 -4.896651749592069169e-01
3.800653551678078723e-01 -4.671710044119421479e-01
3.808522399611159459e-01 -4.434466382926827155e-01
3.816391247544240750e-01 -4.191639887265418141e-01
3.824260095477321486e-01 -3.949002932280418765e-01
3.832128943410402222e-01 -3.711098750548817993e-01
3.839997791343483513e-01 -3.481871319781780771e-01
3.847866639276564249e-01 -3.263842105341251409e-01
3.855735487209644985e-01 -3.058718887867208913e-01
3.863604335142725721e-01 -2.867501063653454807e-01
3.871473183075807012e-01 -2.690119708817657607e-01
3.879342031008887748e-01 -2.526195742006995815e-01
3.887210878941968484e-01 -2.374743168793678194e-01
3.895079726875049775e-01 -2.234291613021310852e-01
3.902948574808130511e-01 -2.103278800023721251e-01
3.910817422741211247e-01 -1.979832297664251284e-01
3.918686270674292538e-01 -1.862186888734309598e-01
3.926555118607373274e-01 -1.748489286620108496e-01
3.934423966540454010e-01 -1.637062343518257412e-01
3.942292814473535301e-01 -1.526366759390029859e-01
3.950161662406616037e-01 -1.415115955098579237e-01
3.958030510339696773e-01 -1.302333508977551180e-01
3.965899358272778064e-01 -1.187031512046865522e-01
3.973768206205858800e-01 -1.068539871006082276e-01
3.981637054138939535e-01 -9.465292828618421250e-02
3.989505902072020271e-01 -8.208044632808730867e-02
3.997374750005101562e-01 -6.914419943546556979e-02
4.005243597938182298e-01 -5.584725089197795089e-02
4.013112445871263034e-01 -4.222865756427884865e-02
4.020981293804344325e-01 -2.831981810987449499e-02
4.028850141737425061e-01 -1.418582730652218071e-02
4.036718989670505797e-01 1.089858889360417749e-04
4.044587837603587088e-01 1.451867222161240534e-02
4.052456685536667824e-01 2.896128885362503347e-02
4.060325533469748560e-01 4.336714608172753671e-02
4.068194381402829851e-01 5.766349091901523671e-02
4.076063229335910587e-01 7.178139948315709340e-02
4.083932077268991323e-01 8.564122639901472489e-02
4.091800925202072059e-01 9.916026300779123837e-02
4.099669773135153350e-01 1.122787752781329029e-01
4.107538621068234086e-01 1.249155861930721922e-01
4.115407469001314822e-01 1.370109617212551534e-01
4.123276316934396113e-01 1.484967438012660956e-01
4.131145164867476849e-01 1.593131984017508440e-01
4.139014012800557585e-01 1.694090155214189597e-01
4.146882860733638876e-01 1.787229294870871232e-01
4.154751708666719612e-01 1.872128201484419829e-01
4.162620556599800348e-01 1.948649027290172420e-01
4.170489404532881639e-01 2.016493102131360349e-01
4.178358252465962375e-01 2.075438337942698830e-01
4.186227100399043111e-01 2.125584291443105567e-01
4.194095948332124402e-01 2.167007544724059986e-01
4.201964796265205138e-01 2.199937844060002590e-01
4.209833644198285874e-01 2.224627910352812155e-01
4.217702492131366609e-01 2.241430021223291824e-01
4.225571340064447901e-01 2.250834302056903269e-01
4.233440187997528636e-01 2.253292587193378438e-01
4.241309035930609372e-01 2.249379242318805261e-01
4.249177883863690663e-01 2.239523127145466308e-01
4.257046731796771399e-01 2.224068861085015669e-01
4.264915579729852135e-01 2.203345747130815990e-01
4.272784427662933426e-01 2.177698404694521361e-01
4.280653275596014162e-01 2.146988986011466594e-01
4.288522123529094898e-01 2.111064326898699495e-01
4.296390971462176189e-01 2.069572149735410260e-01
4.304259819395256925e-01 2.021945747044662234e-01
4.312128667328337661e-01 1.967350374029328552e-01
4.319997515261418397e-01 1.904576033644045374e-01
4.327866363194499688e-01 1.832473994516625737e-01
4.335735211127580424e-01 1.749497298399200762e-01
4.343604059060661160e-01 1.653991772115819270e-01
4.351472906993742451e-01 1.544303242490538963e-01
4.359341754926823187e-01 1.418601397537013753e-01
4.367210602859903923e-01 1.275193773033560518e-01
4.375079450792985214e-01 1.112318980876159102e-01
4.382948298726065950e-01 9.285755687907482070e-02
4.390817146659146686e-01 7.227918307777003726e-02
4.398685994592227977e-01 4.938190354648308578e-02
4.406554842525308713e-01 2.412359813490061455e-02
4.414423690458389449e-01 -3.494967336062804186e-03
4.422292538391470740e-01 -3.343550182066745702e-02
4.430161386324551476e-01 -6.559768277907607192e-02
4.438030234257632212e-01 -9.983447259564903753e-02
4.445899082190712948e-01 -1.359383338024784393e-01
4.453767930123794239e-01 -1.736190202728591370e-01
4.461636778056874975e-01 -2.125786276709380473e-01
4.469505625989955711e-01 -2.524227582255986757e-01
4.477374473923037002e-01 -2.927447610310879300e-01
4.485243321856117737e-01 -3.331073523450609475e-01
4.493112169789198473e-01 -3.730119827519898790e-01
4.500981017722279764e-01 -4.119784825383019378e-01
4.508849865655360500e-01 -4.495067706466395752e-01
4.516718713588441236e-01 -4.850990634823897363e-01
4.524587561521522527e-01 -5.182805520783828612e-01
4.532456409454603263e-01 -5.486047628412971111e-01
4.540325257387683999e-01 -5.756612157608049785e-01
4.548194105320764735e-01 -5.990685320213416931e-01
4.556062953253846026e-01 -6.185073643014399325e-01
4.563931801186926762e-01 -6.337303524456228132e-01
4.571800649120007498e-01 -6.445284273441527212e-01
4.579669497053088789e-01 -6.507691019787711362e-01
4.587538344986169525e-01 -6.523803891834879520e-01
4.595407192919250261e-01 -6.493485041818369830e-01
4.603276040852331552e-01 -6.417416050352342527e-01
4.611144888785412288e-01 -6.296565680894008477e-01
4.619013736718493024e-01 -6.132545986468997956e-01
4.626882584651574315e-01 -5.927447658174685996e-01
4.634751432584655051e-01 -5.683805563239026082e-01
4.642620280517735787e-01 -5.404518333824495091e-01
4.650489128450817078e-01 -5.092790930459487608e-01
4.658357976383897814e-01 -4.751931699495893779e-01
4.666226824316978550e-01 -4.385723796252771756e-01
4.674095672250059286e-01 -3.997797211866223055e-01
4.681964520183140577e-01 -3.591973392701046652e-01
4.689833368116221313e-01 -3.172188658259261773e-01
4.697702216049302049e-01 -2.742222334755350932e-01