0.000000000000000000e+00 9.299364076297234050e-02
7.868847933080908323e-04 1.312634306556734742e-01
1.573769586616181665e-03 1.312634306556734742e-01
2.360654379924272388e-03 1.312634306556734742e-01
3.147539173232363329e-03 1.312634306556734742e-01
3.934423966540453836e-03 1.312634306556734742e-01
4.721308759848544777e-03 1.312634306556734742e-01
5.508193553156635718e-03 1.312634306556734742e-01
6.295078346464726658e-03 1.312634306556734742e-01
7.081963139772817599e-03 1.312634306556734742e-01
7.868847933080907672e-03 1.312634306556734742e-01
8.655732726388998613e-03 1.312634306556734742e-01
9.442617519697089554e-03 1.312634306556734742e-01
1.022950231300518049e-02 1.312634306556734742e-01
1.101638710631327144e-02 1.312634306556734742e-01
1.180327189962136238e-02 1.312634306556734742e-01
1.259015669292945332e-02 1.312634306556734742e-01
1.337704148623754426e-02 1.312634306556734742e-01
1.416392627954563520e-02 1.312634306556734742e-01
1.495081107285372614e-02 1.312634306556734742e-01
1.573769586616181534e-02 1.312634306556734742e-01
1.652458065946990629e-02 1.312634306556734742e-01
1.731146545277799723e-02 1.312634306556734742e-01
1.809835024608608817e-02 1.312634306556734742e-01
1.888523503939417911e-02 1.312634306556734742e-01
1.967211983270227005e-02 1.312634306556734742e-01
2.045900462601036099e-02 1.312634306556734742e-01
2.124588941931845193e-02 1.312634306556734742e-01
2.203277421262654287e-02 1.312634306556734742e-01
2.281965900593463381e-02 1.312634306556734742e-01
2.360654379924272475e-02 1.312634306556734742e-01
2.439342859255081569e-02 1.312634306556734742e-01
2.518031338585890663e-02 1.312634306556734742e-01
2.596719817916699757e-02 1.312634306556734742e-01
2.675408297247508851e-02 1.312634306556734742e-01
2.754096776578317946e-02 1.312634306556734742e-01
2.832785255909127040e-02 1.312634306556734742e-01
2.911473735239936134e-02 1.312634306556734742e-01
2.990162214570745228e-02 1.312634306556734742e-01
3.068850693901554322e-02 1.312634306556734742e-01
3.147539173232363069e-02 1.312634306556734742e-01
3.226227652563172510e-02 1.312634306556734742e-01
3.304916131893981257e-02 1.312634306556734742e-01
3.383604611224790698e-02 1.312634306556734742e-01
3.462293090555599445e-02 1.312634306556734742e-01
3.540981569886408886e-02 1.312634306556734742e-01
3.619670049217217633e-02 1.312634306556734742e-01
3.698358528548027074e-02 1.312634306556734742e-01
3.777047007878835821e-02 1.312634306556734742e-01
3.855735487209645262e-02 1.312634306556734742e-01
3.934423966540454010e-02 1.312634306556734742e-01
4.013112445871263451e-02 1.312634306556734742e-01
4.091800925202072198e-02 1.312634306556734742e-01
4.170489404532881639e-02 1.312634306556734742e-01
4.249177883863690386e-02 1.312634306556734742e-01
4.327866363194499827e-02 1.312634306556734742e-01
4.406554842525308574e-02 1.312634306556734742e-01
4.485243321856118015e-02 1.312634306556734742e-01
4.563931801186926762e-02 1.312634306556734742e-01
4.642620280517736203e-02 1.312634306556734742e-01
4.721308759848544950e-02 1.312634306556734742e-01
4.799997239179354391e-02 1.312634306556734742e-01
4.878685718510163138e-02 1.312634306556734742e-01
4.957374197840972579e-02 1.312634306556734742e-01
5.036062677171781327e-02 1.312634306556734742e-01
5.114751156502590074e-02 1.312634306556734742e-01
5.193439635833399515e-02 1.312634306556734742e-01
5.272128115164208262e-02 1.312634306556734742e-01
5.350816594495017703e-02 1.312634306556734742e-01
5.429505073825826450e-02 1.312634306556734742e-01
5.508193553156635891e-02 1.312634306556734742e-01
5.586882032487444638e-02 1.312634306556734742e-01
5.665570511818254079e-02 1.312634306556734742e-01
5.744258991149062826e-02 1.312634306556734742e-01
5.822947470479872267e-02 1.312634306556734742e-01
5.901635949810681014e-02 1.312634306556734742e-01
5.980324429141490455e-02 1.312634306556734742e-01
6.059012908472299203e-02 1.312634306556734742e-01
6.137701387803108644e-02 1.312634306556734742e-01
6.216389867133917391e-02 1.312634306556734742e-01
6.295078346464726138e-02 1.312634306556734742e-01
6.373766825795536273e-02 1.312634306556734742e-01
6.452455305126345020e-02 1.312634306556734742e-01
6.531143784457153767e-02 1.312634306556734742e-01
6.609832263787962514e-02 1.312634306556734742e-01
6.688520743118772649e-02 1.312634306556734742e-01
6.767209222449581396e-02 1.312634306556734742e-01
6.845897701780390143e-02 1.312634306556734742e-01
6.924586181111198890e-02 1.312634306556734742e-01
7.003274660442009025e-02 1.312634306556734742e-01
7.081963139772817772e-02 1.312634306556734742e-01
7.160651619103626520e-02 1.312634306556734742e-01
7.239340098434435267e-02 1.312634306556734742e-01
7.318028577765245402e-02 1.312634306556734742e-01
7.396717057096054149e-02 1.312634306556734742e-01
7.475405536426862896e-02 1.312634306556734742e-01
7.554094015757671643e-02 1.312634306556734742e-01
7.632782495088480390e-02 1.312634306556734742e-01
7.711470974419290525e-02 1.312634306556734742e-01
7.790159453750099272e-02 1.312634306556734742e-01
7.868847933080908019e-02 1.312634306556734742e-01
7.947536412411716766e-02 1.312634306556734742e-01
8.026224891742526901e-02 1.312634306556734742e-01
8.104913371073335648e-02 1.312634306556734742e-01
8.183601850404144396e-02 1.312634306556734742e-01
8.262290329734953143e-02 1.312634306556734742e-01
8.340978809065763278e-02 1.312634306556734742e-01
8.419667288396572025e-02 1.312634306556734742e-01
8.498355767727380772e-02 1.312634306556734742e-01
8.577044247058189519e-02 1.312634306556734742e-01
8.655732726388999654e-02 1.312634306556734742e-01
8.734421205719808401e-02 1.312634306556734742e-01
8.813109685050617148e-02 1.312634306556734742e-01
8.891798164381425895e-02 1.312634306556734742e-01
8.970486643712236030e-02 1.312634306556734742e-01
9.049175123043044777e-02 1.312634306556734742e-01
9.127863602373853524e-02 1.312634306556734742e-01
9.206552081704662271e-02 1.312634306556734742e-01
9.285240561035472406e-02 1.312634306556734742e-01
9.363929040366281153e-02 1.312634306556734742e-01
9.442617519697089901e-02 1.312634306556734742e-01
9.521305999027898648e-02 1.312634306556734742e-01
9.599994478358708783e-02 1.312634306556734742e-01
9.678682957689517530e-02 1.312634306556734742e-01
9.757371437020326277e-02 1.312634306556734742e-01
9.836059916351135024e-02 1.312634306556734742e-01
9.914748395681945159e-02 1.312634306556734742e-01
9.993436875012753906e-02 1.312634306556734742e-01
1.007212535434356265e-01 1.312634306556734742e-01
1.015081383367437140e-01 1.312634306556734742e-01
1.022950231300518015e-01 1.312634306556734742e-01
1.030819079233599028e-01 1.312634306556734742e-01
1.038687927166679903e-01 1.312634306556734742e-01
1.046556775099760778e-01 1.312634306556734742e-01
1.054425623032841652e-01 1.312634306556734742e-01
1.062294470965922666e-01 1.312634306556734742e-01
1.070163318899003541e-01 1.312634306556734742e-01
1.078032166832084415e-01 1.312634306556734742e-01
1.085901014765165290e-01 1.312634306556734742e-01
1.093769862698246303e-01 1.312634306556734742e-01
1.101638710631327178e-01 1.312634306556734742e-01
1.109507558564408053e-01 1.312634306556734742e-01
1.117376406497488928e-01 1.312634306556734742e-01
1.125245254430569941e-01 1.312634306556734742e-01
1.133114102363650816e-01 1.312634306556734742e-01
1.140982950296731691e-01 1.312634306556734742e-01
1.148851798229812565e-01 1.312634306556734742e-01
1.156720646162893579e-01 1.312634306556734742e-01
1.164589494095974453e-01 1.312634306556734742e-01
1.172458342029055328e-01 1.312634306556734742e-01
1.180327189962136203e-01 1.312634306556734742e-01
1.188196037895217216e-01 1.312634306556734742e-01
1.196064885828298091e-01 1.312634306556734742e-01
1.203933733761378966e-01 1.312634306556734742e-01
1.211802581694459841e-01 1.312634306556734742e-01
1.219671429627540854e-01 1.312634306556734742e-01
1.227540277560621729e-01 1.312634306556734742e-01
1.235409125493702603e-01 1.312634306556734742e-01
1.243277973426783478e-01 1.312634306556734742e-01
1.251146821359864492e-01 1.312634306556734742e-01
1.259015669292945228e-01 1.312634306556734742e-01
1.266884517226026241e-01 1.312634306556734742e-01
1.274753365159107255e-01 1.312634306556734742e-01
1.282622213092187990e-01 1.312634306556734742e-01
1.290491061025269004e-01 1.312634306556734742e-01
1.298359908958349740e-01 1.312634306556734742e-01
1.306228756891430753e-01 1.312634306556734742e-01
1.314097604824511767e-01 1.312634306556734742e-01
1.321966452757592503e-01 1.312634306556734742e-01
1.329835300690673516e-01 1.312634306556734742e-01
1.337704148623754530e-01 1.312634306556734742e-01
1.345572996556835266e-01 1.312634306556734742e-01
1.353441844489916279e-01 1.312634306556734742e-01
1.361310692422997015e-01 1.312634306556734742e-01
1.369179540356078029e-01 1.312634306556734742e-01
1.377048388289159042e-01 1.312634306556734742e-01
1.384917236222239778e-01 1.312634306556734742e-01
1.392786084155320792e-01 1.312634306556734742e-01
1.400654932088401805e-01 1.312634306556734742e-01
1.408523780021482541e-01 1.312634306556734742e-01
1.416392627954563554e-01 1.312634306556734742e-01
1.424261475887644290e-01 1.312634306556734742e-01
1.432130323820725304e-01 1.312634306556734742e-01
1.439999171753806317e-01 1.312634306556734742e-01
1.447868019686887053e-01 1.312634306556734742e-01
1.455736867619968067e-01 1.312634306556734742e-01
1.463605715553049080e-01 1.312634306556734742e-01
1.471474563486129816e-01 1.312634306556734742e-01
1.479343411419210830e-01 1.312634306556734742e-01
1.487212259352291566e-01 1.312634306556734742e-01
1.495081107285372579e-01 1.312634306556734742e-01
1.502949955218453593e-01 1.312634306556734742e-01
1.510818803151534329e-01 1.312634306556734742e-01
1.518687651084615342e-01 1.312634306556734742e-01
1.526556499017696078e-01 1.312634306556734742e-01
1.534425346950777092e-01 1.312634306556734742e-01
1.542294194883858105e-01 1.312634306556734742e-01
1.550163042816938841e-01 1.312634306556734742e-01
1.558031890750019854e-01 1.312634306556734742e-01
1.565900738683100868e-01 1.312634306556734742e-01
1.573769586616181604e-01 1.312634306556734742e-01
1.581638434549262617e-01 1.312634306556734742e-01
1.589507282482343353e-01 1.312634306556734742e-01
1.597376130415424367e-01 1.312634306556734742e-01
1.605244978348505380e-01 1.312634306556734742e-01
1.613113826281586116e-01 1.312634306556734742e-01
1.620982674214667130e-01 1.312634306556734742e-01
1.628851522147748143e-01 1.312634306556734742e-01
1.636720370080828879e-01 1.312634306556734742e-01
1.644589218013909893e-01 1.312634306556734742e-01
1.652458065946990629e-01 1.312634306556734742e-01
1.660326913880071642e-01 1.312634306556734742e-01
1.668195761813152656e-01 1.312634306556734742e-01
1.676064609746233391e-01 1.312634306556734742e-01
1.683933457679314405e-01 1.312634306556734742e-01
1.691802305612395418e-01 1.312634306556734742e-01
1.699671153545476154e-01 1.312634306556734742e-01
1.707540001478557168e-01 1.312634306556734742e-01
1.715408849411637904e-01 1.312634306556734742e-01
1.723277697344718917e-01 1.312634306556734742e-01
1.731146545277799931e-01 1.312634306556734742e-01
1.739015393210880667e-01 1.312634306556734742e-01
1.746884241143961680e-01 1.312634306556734742e-01
1.754753089077042694e-01 1.312634306556734742e-01
1.762621937010123430e-01 1.312634306556734742e-01
1.770490784943204443e-01 1.312634306556734742e-01
1.778359632876285179e-01 1.312634306556734742e-01
1.786228480809366193e-01 1.312634306556734742e-01
1.794097328742447206e-01 1.312634306556734742e-01
1.801966176675527942e-01 1.312634306556734742e-01
1.809835024608608955e-01 1.312634306556734742e-01
1.817703872541689691e-01 1.312634306556734742e-01
1.825572720474770705e-01 1.312634306556734742e-01
1.833441568407851718e-01 1.312634306556734742e-01
1.841310416340932454e-01 1.312634306556734742e-01
1.849179264274013468e-01 1.312634306556734742e-01
1.857048112207094481e-01 1.312634306556734742e-01
1.864916960140175217e-01 1.312634306556734742e-01
1.872785808073256231e-01 1.312634306556734742e-01
1.880654656006336967e-01 1.312634306556734742e-01
1.888523503939417980e-01 1.312634306556734742e-01
1.896392351872498994e-01 1.312634306556734742e-01
1.904261199805579730e-01 1.312634306556734742e-01
1.912130047738660743e-01 1.312634306556734742e-01
1.919998895671741757e-01 1.312634306556734742e-01
1.927867743604822492e-01 1.312634306556734742e-01
1.935736591537903506e-01 1.312634306556734742e-01
1.943605439470984242e-01 1.312634306556734742e-01
1.951474287404065255e-01 1.312634306556734742e-01
1.959343135337146269e-01 1.312634306556734742e-01
1.967211983270227005e-01 1.312634306556734742e-01
1.975080831203308018e-01 1.312634306556734742e-01
1.982949679136389032e-01 1.312634306556734742e-01
1.990818527069469768e-01 1.312634306556734742e-01
1.998687375002550781e-01 1.312634306556734742e-01
2.006556222935631517e-01 1.312634306556734742e-01
2.014425070868712531e-01 1.312634306556734742e-01
2.022293918801793544e-01 1.312634306556734742e-01
2.030162766734874280e-01 1.312634306556734742e-01
2.038031614667955294e-01 1.312634306556734742e-01
2.045900462601036029e-01 1.312634306556734742e-01
2.053769310534117043e-01 1.312634306556734742e-01
2.061638158467198056e-01 1.312634306556734742e-01
2.069507006400278792e-01 1.312634306556734742e-01
2.077375854333359806e-01 1.312634306556734742e-01
2.085244702266440819e-01 1.312634306556734742e-01
2.093113550199521555e-01 1.312634306556734742e-01
2.100982398132602569e-01 1.312634306556734742e-01
2.108851246065683305e-01 1.312634306556734742e-01
2.116720093998764318e-01 1.312634306556734742e-01
2.124588941931845332e-01 1.312634306556734742e-01
2.132457789864926068e-01 1.312634306556734742e-01
2.140326637798007081e-01 1.312634306556734742e-01
2.148195485731088095e-01 1.312634306556734742e-01
2.156064333664168831e-01 1.312634306556734742e-01
2.163933181597249844e-01 1.312634306556734742e-01
2.171802029530330580e-01 1.312634306556734742e-01
2.179670877463411593e-01 1.312634306556734742e-01
2.187539725396492607e-01 1.312634306556734742e-01
2.195408573329573343e-01 1.312634306556734742e-01
2.203277421262654356e-01 1.312634306556734742e-01
2.211146269195735370e-01 1.312634306556734742e-01
2.219015117128816106e-01 1.312634306556734742e-01
2.226883965061897119e-01 1.312634306556734742e-01
2.234752812994977855e-01 1.312634306556734742e-01
2.242621660928058869e-01 1.312634306556734742e-01
2.250490508861139882e-01 1.312634306556734742e-01
2.258359356794220618e-01 1.312634306556734742e-01
2.266228204727301632e-01 1.312634306556734742e-01
2.274097052660382368e-01 1.312634306556734742e-01
2.281965900593463381e-01 1.312634306556734742e-01
2.289834748526544395e-01 1.312634306556734742e-01
2.297703596459625131e-01 1.312634306556734742e-01
2.305572444392706144e-01 1.312634306556734742e-01
2.313441292325787157e-01 1.312634306556734742e-01
2.321310140258867893e-01 1.312634306556734742e-01
2.329178988191948907e-01 1.312634306556734742e-01
2.337047836125029643e-01 1.312634306556734742e-01
2.344916684058110656e-01 1.312634306556734742e-01
2.352785531991191670e-01 1.312634306556734742e-01
2.360654379924272406e-01 1.312634306556734742e-01
2.368523227857353419e-01 1.312634306556734742e-01
2.376392075790434433e-01 1.312634306556734742e-01
2.384260923723515169e-01 1.312634306556734742e-01
2.392129771656596182e-01 1.312634306556734742e-01
2.399998619589676918e-01 1.312634306556734742e-01
2.407867467522757932e-01 1.312634306556734742e-01
2.415736315455838945e-01 1.312634306556734742e-01
2.423605163388919681e-01 1.312634306556734742e-01
2.431474011322000695e-01 1.312634306556734742e-01
2.439342859255081708e-01 1.312634306556734742e-01
2.447211707188162444e-01 1.312634306556734742e-01
2.455080555121243457e-01 1.312634306556734742e-01
2.462949403054324193e-01 1.312634306556734742e-01
2.470818250987405207e-01 1.312634306556734742e-01
2.478687098920486220e-01 1.312634306556734742e-01
2.486555946853566956e-01 1.312634306556734742e-01
2.494424794786647970e-01 1.312634306556734742e-01
2.502293642719728983e-01 1.312634306556734742e-01
2.510162490652809719e-01 1.312634306556734742e-01
2.518031338585890455e-01 1.312634306556734742e-01
2.525900186518971746e-01 1.312634306556734742e-01
2.533769034452052482e-01 1.312634306556734742e-01
2.541637882385133218e-01 1.312634306556734742e-01
2.549506730318214509e-01 1.312634306556739183e-01
2.557375578251295245e-01 1.312634306556741404e-01
2.565244426184375981e-01 1.312634306556761388e-01
2.573113274117457272e-01 1.312634306556785813e-01
2.580982122050538008e-01 1.312634306556896835e-01
2.588850969983618744e-01 1.312634306557034503e-01
2.596719817916699480e-01 1.312634306557598496e-01
2.604588665849780771e-01 1.312634306558317920e-01
2.612457513782861507e-01 1.312634306560944708e-01
2.620326361715942243e-01 1.312634306564324227e-01
2.628195209649023534e-01 1.312634306575362064e-01
2.636064057582104270e-01 1.312634306589817168e-01
2.643932905515185006e-01 1.312634306631859094e-01
2.651801753448266297e-01 1.312634306688105212e-01
2.659670601381347033e-01 1.312634306833799780e-01
2.667539449314427769e-01 1.312634307033564429e-01
2.675408297247509060e-01 1.312634307494966457e-01
2.683277145180589796e-01 1.312634308144888795e-01
2.691145993113670531e-01 1.312634309489126849e-01
2.699014841046751823e-01 1.312634311435896262e-01
2.706883688979832558e-01 1.312634315072840341e-01
2.714752536912913294e-01 1.312634320478689443e-01
2.722621384845994030e-01 1.312634329732396132e-01
2.730490232779075321e-01 1.312634343775469503e-01
2.738359080712156057e-01 1.312634366246587803e-01
2.746227928645236793e-01 1.312634400758749820e-01
2.754096776578318084e-01 1.312634453589716088e-01
2.761965624511398820e-01 1.312634534822036958e-01
2.769834472444479556e-01 1.312634656325055715e-01
2.777703320377560847e-01 1.312634841532493990e-01
2.785572168310641583e-01 1.312635116014946313e-01
2.793441016243722319e-01 1.312635528382042338e-01
2.801309864176803610e-01 1.312636136868678971e-01
2.809178712109884346e-01 1.312637036822927872e-01
2.817047560042965082e-01 1.312638356891284719e-01
2.824916407976045818e-01 1.312640282267516501e-01
2.832785255909127109e-01 1.312643079702180415e-01
2.840654103842207845e-01 1.312647111753986184e-01
2.848522951775288581e-01 1.312652901281239348e-01
2.856391799708369872e-01 1.312661155433696436e-01
2.864260647641450608e-01 1.312672863080730501e-01
2.872129495574531344e-01 1.312689371926123449e-01
2.879998343507612635e-01 1.312712512592122405e-01
2.887867191440693371e-01 1.312744771119789267e-01
2.895736039373774107e-01 1.312789470241957357e-01
2.903604887306855398e-01 1.312851054643962012e-01
2.911473735239936134e-01 1.312935406356463552e-01
2.919342583173016870e-01 1.313050259281463017e-01
2.927211431106098161e-01 1.313205730101383306e-01
2.935080279039178897e-01 1.313414929055645164e-01
2.942949126972259632e-01 1.313694755434331451e-01
2.950817974905340368e-01 1.314066819865218338e-01
2.958686822838421659e-01 1.314558553758991000e-01
2.966555670771502395e-01 1.315204536010627923e-01
2.974424518704583131e-01 1.316048005846195412e-01
2.982293366637664422e-01 1.317142619466062925e-01
2.990162214570745158e-01 1.318554459521759092e-01
2.998031062503825894e-01 1.320364212767726197e-01
3.005899910436907185e-01 1.322669631293904580e-01
3.013768758369987921e-01 1.325588109268214243e-01
3.021637606303068657e-01 1.329259404897342733e-01
3.029506454236149948e-01 1.333848417233953754e-01
3.037375302169230684e-01 1.339547828360889703e-01
3.045244150102311420e-01 1.346580703609570051e-01
3.053112998035392156e-01 1.355202456058626215e-01
3.060981845968473447e-01 1.365702638183274864e-01
3.068850693901554183e-01 1.378405482009334992e-01
3.076719541834634919e-01 1.393669862548969629e-01
3.084588389767716210e-01 1.411887605872050866e-01
3.092457237700796946e-01 1.433480464243619412e-01
3.100326085633877682e-01 1.458894894080933202e-01
3.108194933566958973e-01 1.488595161926065114e-01
3.116063781500039709e-01 1.523054143545281569e-01
3.123932629433120445e-01 1.562740553025820933e-01
3.131801477366201736e-01 1.608105859414323824e-01
3.139670325299282472e-01 1.659566124245388519e-01
3.147539173232363208e-01 1.717483453483268363e-01
3.155408021165444499e-01 1.782144723763221528e-01
3.163276869098525235e-01 1.853737782374045295e-01
3.171145717031605971e-01 1.932329535286656519e-01
3.179014564964686707e-01 2.017840471828140636e-01
3.186883412897767998e-01 2.110021689022407720e-01
3.194752260830848734e-01 2.208435266547856823e-01
3.202621108763929469e-01 2.312434375773035899e-01
3.210489956697010761e-01 2.421149239075945925e-01
3.218358804630091496e-01 2.533485747049732950e-01
3.226227652563172232e-01 2.648112162403533087e-01
3.234096500496253523e-01 2.763475500756622516e-01
3.241965348429334259e-01 2.877814082156022746e-01
3.249834196362414995e-01 2.989180081260651711e-01
3.257703044295496286e-01 3.095469736078602097e-01
3.265571892228577022e-01 3.194476957838898734e-01
3.273440740161657758e-01 3.283929709118791340e-01
3.281309588094738494e-01 3.361564887474155494e-01
3.289178436027819785e-01 3.425171298431946010e-01
3.297047283960900521e-01 3.472668793872339954e-01
3.304916131893981257e-01 3.502189112311575592e-01
3.312784979827062548e-01 3.512113746192315755e-01
3.320653827760143284e-01 3.501174779499618417e-01
3.328522675693224020e-01 3.468481267221639186e-01
3.336391523626305311e-01 3.413590715178664858e-01
3.344260371559386047e-01 3.336520993327953821e-01
3.352129219492466783e-01 3.237792032330666370e-01
3.359998067425548074e-01 3.118424121651179881e-01
3.367866915358628810e-01 2.979928549103281199e-01
3.375735763291709546e-01 2.824301644197748651e-01
3.383604611224790837e-01 2.653949894511939966e-01
3.391473459157871573e-01 2.471642292470441760e-01
3.399342307090952309e-01 2.280472893529859046e-01
3.407211155024033045e-01 2.083724664123516312e-01
3.415080002957114336e-01 1.884847356952481512e-01
3.422948850890195072e-01 1.687314551327494527e-01
3.430817698823275808e-01 1.494565788545476615e-01
3.438686546756357099e-01 1.309889140741826719e-01
3.446555394689437835e-01 1.136285058835131423e-01
3.454424242622518570e-01 9.765225352499795619e-02
3.462293090555599862e-01 8.329076454229467075e-02
3.470161938488680597e-01 7.073465181281779479e-02
3.478030786421761333e-01 6.012670480455928335e-02
3.485899634354842624e-01 5.155661368394537369e-02
3.493768482287923360e-01 4.506777691860164303e-02
3.501637330221004096e-01 4.064487740230737778e-02
3.509506178154085387e-01 3.823107165197625612e-02
3.517375026087166123e-01 3.771931011413198753e-02
3.525243874020246859e-01 3.896042119319065300e-02
3.533112721953327595e-01 4.177425870098860905e-02
3.540981569886408886e-01 4.594374520436295128e-02
3.548850417819489622e-01 5.123223141220223376e-02
3.556719265752570358e-01 5.738647450165590413e-02
3.564588113685651649e-01 6.413808473372095698e-02
3.572456961618732385e-01 7.122011898498303850e-02
3.580325809551813121e-01 7.835950728953844369e-02
3.588194657484894412e-01 8.530139001887993011e-02
3.596063505417975148e-01 9.179303492036416934e-02
3.603932353351055884e-01 9.760953581764875153e-02
3.611801201284137175e-01 1.025394315498520115e-01
3.619670049217217911e-01 1.063997677926697971e-01
3.627538897150298647e-01 1.090360970583752476e-01
3.635407745083379383e-01 1.103127778618799848e-01
3.643276593016460674e-01 1.101482040650407779e-01
3.651145440949541410e-01 1.084686833679286977e-01
3.659014288882622146e-01 1.052521761565925473e-01
3.666883136815703437e-01 1.005030222777949511e-01
3.674751984748784173e-01 9.425585541060188532e-02
3.682620832681864909e-01 8.658896298680840431e-02
3.690489680614946200e-01 7.760275714719577778e-02
3.698358528548026936e-01 6.743347504209440402e-02
3.706227376481107672e-01 5.623964872088982325e-02
3.714096224414188963e-01 4.420738102416477133e-02
3.721965072347269698e-01 3.155017539363047518e-02
3.729833920280350434e-01 1.848247131637847929e-02
3.737702768213431725e-01 5.249597777045478253e-03
3.745571616146512461e-01 -7.908392131874886211e-03
3.753440464079593197e-01 -2.074719056616025625e-02
3.761309312012673933e-01 -3.302742519359336271e-02
3.769178159945755224e-01 -4.452299850734797726e-02
3.777047007878835960e-01 -5.501564174377771010e-02
3.784915855811916696e-01 -6.431797563678098850e-02
3.792784703744997987e-01 -7.226244806330939241e-02
3.800653551678078723e-01 -7.872026768855588941e-02
3.808522399611159459e-01 -8.359431980432907583e-02
3.816391247544240750e-01 -8.682748436868037434e-02
3.824260095477321486e-01 -8.839667935348538563e-02
3.832128943410402222e-01 -8.833348565344523173e-02
3.839997791343483513e-01 -8.669807609487312217e-02
3.847866639276564249e-01 -8.359314974760390093e-02
3.855735487209644985e-01 -7.915564313678336017e-02
3.863604335142725721e-01 -7.356014734035043467e-02
3.871473183075807012e-01 -6.700404295018702605e-02
3.879342031008887748e-01 -5.970057014524110528e-02
3.887210878941968484e-01 -5.189567484914991979e-02
3.895079726875049775e-01 -4.383653686355193368e-02
3.902948574808130511e-01 -3.576629397594377480e-02
3.910817422741211247e-01 -2.793125376385974246e-02
3.918686270674292538e-01 -2.056857608861861753e-02
3.926555118607373274e-01 -1.390027389538772695e-02
3.934423966540454010e-01 -8.123171999104505936e-03
3.942292814473535301e-01 -3.405503283094080125e-03
3.950161662406616037e-01 1.079005038222557999e-04
3.958030510339696773e-01 2.315691175483136632e-03
3.965899358272778064e-01 3.142900006441795568e-03
3.973768206205858800e-01 2.562126395569297443e-03
3.981637054138939535e-01 5.857942179114949965e-04
3.989505902072020271e-01 -2.744570149666003545e-03
3.997374750005101562e-01 -7.343616387499696252e-03
4.005243597938182298e-01 -1.309314749258549959e-02
4.013112445871263034e-01 -1.983641841126382310e-02
4.020981293804344325e-01 -2.739336805040548661e-02
4.028850141737425061e-01 -3.556283174831065264e-02
4.036718989670505797e-01 -4.411198949042283157e-02
4.044587837603587088e-01 -5.280053289914443670e-02
4.052456685536667824e-01 -6.138338827494238537e-02
4.060325533469748560e-01 -6.959744177095705808e-02
4.068194381402829851e-01 -7.719523702668762422e-02
4.076063229335910587e-01 -8.393408300356874907e-02
4.083932077268991323e-01 -8.957656455517803984e-02
4.091800925202072059e-01 -9.391045466532255137e-02
4.099669773135153350e-01 -9.674480007644936652e-02
4.107538621068234086e-01 -9.791621832220331889e-02
4.115407469001314822e-01 -9.729025924797940483e-02
4.123276316934396113e-01 -9.476463862223649670e-02
4.131145164867476849e-01 -9.027264193787942759e-02
4.139014012800557585e-01 -8.378669840371077981e-02
4.146882860733638876e-01 -7.530850992042170677e-02
4.154751708666719612e-01 -6.488198552584523160e-02
4.162620556599800348e-01 -5.258643379219130054e-02
4.170489404532881639e-01 -3.852941484314387210e-02
4.178358252465962375e-01 -2.285048453538152113e-02
4.186227100399043111e-01 -5.718811797609579806e-03
4.194095948332124402e-01 1.267601163317189084e-02
4.201964796265205138e-01 3.212499235208365889e-02
4.209833644198285874e-01 5.240552174871648816e-02
4.217702492131366609e-01 7.328069524685520975e-02
4.225571340064447901e-01 9.451122560931657368e-02
4.233440187997528636e-01 1.158568044585033263e-01
4.241309035930609372e-01 1.370852925401353506e-01
4.249177883863690663e-01 1.579662525006240159e-01
4.257046731796771399e-01 1.782791180103895368e-01
4.264915579729852135e-01 1.978315742913263620e-01
4.272784427662933426e-01 2.164381141680935539e-01
4.280653275596014162e-01 2.339506722805562156e-01
4.288522123529094898e-01 2.502395637960452834e-01
4.296390971462176189e-01 2.651934844093557508e-01
4.304259819395256925e-01 2.787419754318722909e-01
4.312128667328337661e-01 2.908370432641025349e-01
4.319997515261418397e-01 3.014694976423144546e-01
4.327866363194499688e-01 3.106529537720372769e-01
4.335735211127580424e-01 3.184309803109661718e-01
4.343604059060661160e-01 3.248743763278547636e-01
4.351472906993742451e-01 3.300789588316179746e-01
4.359341754926823187e-01 3.341653925812617665e-01
4.367210602859903923e-01 3.372696594420130367e-01
4.375079450792985214e-01 3.395485044675319308e-01
4.382948298726065950e-01 3.411690543056937752e-01
4.390817146659146686e-01 3.422989461745824524e-01
4.398685994592227977e-01 3.431136460354606843e-01
4.406554842525308713e-01 3.437894707999367139e-01
4.414423690458389449e-01 3.444870798932602174e-01
4.422292538391470740e-01 3.453656010300583112e-01
4.430161386324551476e-01 3.465526767621713855e-01
4.438030234257632212e-01 3.481735669804715272e-01
4.445899082190712948e-01 3.503125157691735492e-01
4.453767930123794239e-01 3.530260262312252539e-01
4.461636778056874975e-01 3.563586881647358151e-01
4.469505625989955711e-01 3.603038641570097678e-01
4.477374473923037002e-01 3.648232614424953280e-01
4.485243321856117737e-01 3.698571433069308689e-01
4.493112169789198473e-01 3.753081610307800187e-01
4.500981017722279764e-01 3.810393967034353402e-01
4.508849865655360500e-01 3.869100180427000879e-01
4.516718713588441236e-01 3.927423466164130517e-01
4.524587561521522527e-01 3.983535131953039876e-01
4.532456409454603263e-01 4.035368219404271706e-01
4.540325257387683999e-01 4.080903423347712611e-01
4.548194105320764735e-01 4.118235465959561026e-01
4.556062953253846026e-01 4.145328874013143317e-01
4.563931801186926762e-01 4.160388142279238810e-01
4.571800649120007498e-01 4.161833055966068784e-01
4.579669497053088789e-01 4.148343365612432443e-01
4.587538344986169525e-01 4.118815388620087337e-01
4.595407192919250261e-01 4.072471781848328032e-01
4.603276040852331552e-01 4.008908556620576213e-01
4.611144888785412288e-01 3.928038916001586056e-01
4.619013736718493024e-01 3.830103040726398067e-01
4.626882584651574315e-01 3.715690426646931499e-01
4.634751432584655051e-01 3.585687870392093579e-01
4.642620280517735787e-01 3.441279469367788391e-01
4.650489128450817078e-01 3.283810150595236621e-01
4.658357976383897814e-01 3.114925226567657468e-01
4.666226824316978550e-01 2.936318886238746817e-01
4.674095672250059286e-01 2.749945709367951352e-01
4.681964520183140577e-01 2.557694087733151100e-01
4.689833368116221313e-01 2.361433107176260648e-01
4.697702216049302049e-01 2.163161623466896000e-01