0.000000000000000000e+00 -4.096235832253246612e-01
7.868847933080908323e-04 1.158697095475802463e-01
1.573769586616181665e-03 1.158697095475802463e-01
2.360654379924272388e-03 1.158697095475802463e-01
3.147539173232363329e-03 1.158697095475802463e-01
3.934423966540453836e-03 1.158697095475802463e-01
4.721308759848544777e-03 1.158697095475802463e-01
5.508193553156635718e-03 1.158697095475802463e-01
6.295078346464726658e-03 1.158697095475802463e-01
7.081963139772817599e-03 1.158697095475802463e-01
7.868847933080907672e-03 1.158697095475802463e-01
8.655732726388998613e-03 1.158697095475802463e-01
9.442617519697089554e-03 1.158697095475802463e-01
1.022950231300518049e-02 1.158697095475802463e-01
1.101638710631327144e-02 1.158697095475802463e-01
1.180327189962136238e-02 1.158697095475802463e-01
1.259015669292945332e-02 1.158697095475802463e-01
1.337704148623754426e-02 1.158697095475802463e-01
1.416392627954563520e-02 1.158697095475802463e-01
1.495081107285372614e-02 1.158697095475802463e-01
1.573769586616181534e-02 1.158697095475802463e-01
1.652458065946990629e-02 1.158697095475802463e-01
1.731146545277799723e-02 1.158697095475802463e-01
1.809835024608608817e-02 1.158697095475802463e-01
1.888523503939417911e-02 1.158697095475802463e-01
1.967211983270227005e-02 1.158697095475802463e-01
2.045900462601036099e-02 1.158697095475802463e-01
2.124588941931845193e-02 1.158697095475802463e-01
2.203277421262654287e-02 1.158697095475802463e-01
2.281965900593463381e-02 1.158697095475802463e-01
2.360654379924272475e-02 1.158697095475802463e-01
2.439342859255081569e-02 1.158697095475802463e-01
2.518031338585890663e-02 1.158697095475802463e-01
2.596719817916699757e-02 1.158697095475802463e-01
2.675408297247508851e-02 1.158697095475802463e-01
2.754096776578317946e-02 1.158697095475802463e-01
2.832785255909127040e-02 1.158697095475802463e-01
2.911473735239936134e-02 1.158697095475802463e-01
2.990162214570745228e-02 1.158697095475802463e-01
3.068850693901554322e-02 1.158697095475802463e-01
3.147539173232363069e-02 1.158697095475802463e-01
3.226227652563172510e-02 1.158697095475802463e-01
3.304916131893981257e-02 1.158697095475802463e-01
3.383604611224790698e-02 1.158697095475802463e-01
3.462293090555599445e-02 1.158697095475802463e-01
3.540981569886408886e-02 1.158697095475802463e-01
3.619670049217217633e-02 1.158697095475802463e-01
3.698358528548027074e-02 1.158697095475802463e-01
3.777047007878835821e-02 1.158697095475802463e-01
3.855735487209645262e-02 1.158697095475802463e-01
3.934423966540454010e-02 1.158697095475802463e-01
4.013112445871263451e-02 1.158697095475802463e-01
4.091800925202072198e-02 1.158697095475802463e-01
4.170489404532881639e-02 1.158697095475802463e-01
4.249177883863690386e-02 1.158697095475802463e-01
4.327866363194499827e-02 1.158697095475802463e-01
4.406554842525308574e-02 1.158697095475802463e-01
4.485243321856118015e-02 1.158697095475802463e-01
4.563931801186926762e-02 1.158697095475802463e-01
4.642620280517736203e-02 1.158697095475802463e-01
4.721308759848544950e-02 1.158697095475802463e-01
4.799997239179354391e-02 1.158697095475802463e-01
4.878685718510163138e-02 1.158697095475802463e-01
4.957374197840972579e-02 1.158697095475802463e-01
5.036062677171781327e-02 1.158697095475802463e-01
5.114751156502590074e-02 1.158697095475802463e-01
5.193439635833399515e-02 1.158697095475802463e-01
5.272128115164208262e-02 1.158697095475802463e-01
5.350816594495017703e-02 1.158697095475802463e-01
5.429505073825826450e-02 1.158697095475802463e-01
5.508193553156635891e-02 1.158697095475802463e-01
5.586882032487444638e-02 1.158697095475802463e-01
5.665570511818254079e-02 1.158697095475802463e-01
5.744258991149062826e-02 1.158697095475802463e-01
5.822947470479872267e-02 1.158697095475802463e-01
5.901635949810681014e-02 1.158697095475802463e-01
5.980324429141490455e-02 1.158697095475802463e-01
6.059012908472299203e-02 1.158697095475802463e-01
6.137701387803108644e-02 1.158697095475802463e-01
6.216389867133917391e-02 1.158697095475802463e-01
6.295078346464726138e-02 1.158697095475802463e-01
6.373766825795536273e-02 1.158697095475802463e-01
6.452455305126345020e-02 1.158697095475802463e-01
6.531143784457153767e-02 1.158697095475802463e-01
6.609832263787962514e-02 1.158697095475802463e-01
6.688520743118772649e-02 1.158697095475802463e-01
6.767209222449581396e-02 1.158697095475802463e-01
6.845897701780390143e-02 1.158697095475802463e-01
6.924586181111198890e-02 1.158697095475802463e-01
7.003274660442009025e-02 1.158697095475802463e-01
7.081963139772817772e-02 1.158697095475802463e-01
7.160651619103626520e-02 1.158697095475802463e-01
7.239340098434435267e-02 1.158697095475802463e-01
7.318028577765245402e-02 1.158697095475802463e-01
7.396717057096054149e-02 1.158697095475802463e-01
7.475405536426862896e-02 1.158697095475802463e-01
7.554094015757671643e-02 1.158697095475802463e-01
7.632782495088480390e-02 1.158697095475802463e-01
7.711470974419290525e-02 1.158697095475802463e-01
7.790159453750099272e-02 1.158697095475802463e-01
7.868847933080908019e-02 1.158697095475802463e-01
7.947536412411716766e-02 1.158697095475802463e-01
8.026224891742526901e-02 1.158697095475802463e-01
8.104913371073335648e-02 1.158697095475802463e-01
8.183601850404144396e-02 1.158697095475802463e-01
8.262290329734953143e-02 1.158697095475802463e-01
8.340978809065763278e-02 1.158697095475802463e-01
8.419667288396572025e-02 1.158697095475802463e-01
8.498355767727380772e-02 1.158697095475802463e-01
8.577044247058189519e-02 1.158697095475802463e-01
8.655732726388999654e-02 1.158697095475802463e-01
8.734421205719808401e-02 1.158697095475802463e-01
8.813109685050617148e-02 1.158697095475802463e-01
8.891798164381425895e-02 1.158697095475802463e-01
8.970486643712236030e-02 1.158697095475802463e-01
9.049175123043044777e-02 1.158697095475802463e-01
9.127863602373853524e-02 1.158697095475802463e-01
9.206552081704662271e-02 1.158697095475802463e-01
9.285240561035472406e-02 1.158697095475802463e-01
9.363929040366281153e-02 1.158697095475802463e-01
9.442617519697089901e-02 1.158697095475802463e-01
9.521305999027898648e-02 1.158697095475802463e-01
9.599994478358708783e-02 1.158697095475802463e-01
9.678682957689517530e-02 1.158697095475802463e-01
9.757371437020326277e-02 1.158697095475802463e-01
9.836059916351135024e-02 1.158697095475802463e-01
9.914748395681945159e-02 1.158697095475802463e-01
9.993436875012753906e-02 1.158697095475802463e-01
1.007212535434356265e-01 1.158697095475802463e-01
1.015081383367437140e-01 1.158697095475802463e-01
1.022950231300518015e-01 1.158697095475802463e-01
1.030819079233599028e-01 1.158697095475802463e-01
1.038687927166679903e-01 1.158697095475802463e-01
1.046556775099760778e-01 1.158697095475802463e-01
1.054425623032841652e-01 1.158697095475802463e-01
1.062294470965922666e-01 1.158697095475802463e-01
1.070163318899003541e-01 1.158697095475802463e-01
1.078032166832084415e-01 1.158697095475802463e-01
1.085901014765165290e-01 1.158697095475802463e-01
1.093769862698246303e-01 1.158697095475802463e-01
1.101638710631327178e-01 1.158697095475802463e-01
1.109507558564408053e-01 1.158697095475802463e-01
1.117376406497488928e-01 1.158697095475802463e-01
1.125245254430569941e-01 1.158697095475802463e-01
1.133114102363650816e-01 1.158697095475802463e-01
1.140982950296731691e-01 1.158697095475802463e-01
1.148851798229812565e-01 1.158697095475802463e-01
1.156720646162893579e-01 1.158697095475802463e-01
1.164589494095974453e-01 1.158697095475802463e-01
1.172458342029055328e-01 1.158697095475802463e-01
1.180327189962136203e-01 1.158697095475802463e-01
1.188196037895217216e-01 1.158697095475802463e-01
1.196064885828298091e-01 1.158697095475802463e-01
1.203933733761378966e-01 1.158697095475802463e-01
1.211802581694459841e-01 1.158697095475802463e-01
1.219671429627540854e-01 1.158697095475802463e-01
1.227540277560621729e-01 1.158697095475802463e-01
1.235409125493702603e-01 1.158697095475802463e-01
1.243277973426783478e-01 1.158697095475802463e-01
1.251146821359864492e-01 1.158697095475802463e-01
1.259015669292945228e-01 1.158697095475802463e-01
1.266884517226026241e-01 1.158697095475802463e-01
1.274753365159107255e-01 1.158697095475802463e-01
1.282622213092187990e-01 1.158697095475802463e-01
1.290491061025269004e-01 1.158697095475802463e-01
1.298359908958349740e-01 1.158697095475802463e-01
1.306228756891430753e-01 1.158697095475802463e-01
1.314097604824511767e-01 1.158697095475802463e-01
1.321966452757592503e-01 1.158697095475802463e-01
1.329835300690673516e-01 1.158697095475802463e-01
1.337704148623754530e-01 1.158697095475802463e-01
1.345572996556835266e-01 1.158697095475802463e-01
1.353441844489916279e-01 1.158697095475802463e-01
1.361310692422997015e-01 1.158697095475802463e-01
1.369179540356078029e-01 1.158697095475802463e-01
1.377048388289159042e-01 1.158697095475802463e-01
1.384917236222239778e-01 1.158697095475802463e-01
1.392786084155320792e-01 1.158697095475802463e-01
1.400654932088401805e-01 1.158697095475802463e-01
1.408523780021482541e-01 1.158697095475802463e-01
1.416392627954563554e-01 1.158697095475802463e-01
1.424261475887644290e-01 1.158697095475802463e-01
1.432130323820725304e-01 1.158697095475802463e-01
1.439999171753806317e-01 1.158697095475802463e-01
1.447868019686887053e-01 1.158697095475802463e-01
1.455736867619968067e-01 1.158697095475802463e-01
1.463605715553049080e-01 1.158697095475802463e-01
1.471474563486129816e-01 1.158697095475802463e-01
1.479343411419210830e-01 1.158697095475802463e-01
1.487212259352291566e-01 1.158697095475802463e-01
1.495081107285372579e-01 1.158697095475802463e-01
1.502949955218453593e-01 1.158697095475802463e-01
1.510818803151534329e-01 1.158697095475802463e-01
1.518687651084615342e-01 1.158697095475802463e-01
1.526556499017696078e-01 1.158697095475802463e-01
1.534425346950777092e-01 1.158697095475802463e-01
1.542294194883858105e-01 1.158697095475802463e-01
1.550163042816938841e-01 1.158697095475802463e-01
1.558031890750019854e-01 1.158697095475802463e-01
1.565900738683100868e-01 1.158697095475802463e-01
1.573769586616181604e-01 1.158697095475802463e-01
1.581638434549262617e-01 1.158697095475802463e-01
1.589507282482343353e-01 1.158697095475802463e-01
1.597376130415424367e-01 1.158697095475802463e-01
1.605244978348505380e-01 1.158697095475802463e-01
1.613113826281586116e-01 1.158697095475802463e-01
1.620982674214667130e-01 1.158697095475802463e-01
1.628851522147748143e-01 1.158697095475802463e-01
1.636720370080828879e-01 1.158697095475802463e-01
1.644589218013909893e-01 1.158697095475802463e-01
1.652458065946990629e-01 1.158697095475802463e-01
1.660326913880071642e-01 1.158697095475802463e-01
1.668195761813152656e-01 1.158697095475802463e-01
1.676064609746233391e-01 1.158697095475802463e-01
1.683933457679314405e-01 1.158697095475802463e-01
1.691802305612395418e-01 1.158697095475802463e-01
1.699671153545476154e-01 1.158697095475802463e-01
1.707540001478557168e-01 1.158697095475802463e-01
1.715408849411637904e-01 1.158697095475802463e-01
1.723277697344718917e-01 1.158697095475802463e-01
1.731146545277799931e-01 1.158697095475802463e-01
1.739015393210880667e-01 1.158697095475802463e-01
1.746884241143961680e-01 1.158697095475802463e-01
1.754753089077042694e-01 1.158697095475802463e-01
1.762621937010123430e-01 1.158697095475802463e-01
1.770490784943204443e-01 1.158697095475802463e-01
1.778359632876285179e-01 1.158697095475802463e-01
1.786228480809366193e-01 1.158697095475802463e-01
1.794097328742447206e-01 1.158697095475802463e-01
1.801966176675527942e-01 1.158697095475802463e-01
1.809835024608608955e-01 1.158697095475802463e-01
1.817703872541689691e-01 1.158697095475802463e-01
1.825572720474770705e-01 1.158697095475802463e-01
1.833441568407851718e-01 1.158697095475802463e-01
1.841310416340932454e-01 1.158697095475802463e-01
1.849179264274013468e-01 1.158697095475802463e-01
1.857048112207094481e-01 1.158697095475802463e-01
1.864916960140175217e-01 1.158697095475802463e-01
1.872785808073256231e-01 1.158697095475802463e-01
1.880654656006336967e-01 1.158697095475802463e-01
1.888523503939417980e-01 1.158697095475802463e-01
1.896392351872498994e-01 1.158697095475802463e-01
1.904261199805579730e-01 1.158697095475802463e-01
1.912130047738660743e-01 1.158697095475802463e-01
1.919998895671741757e-01 1.158697095475802463e-01
1.927867743604822492e-01 1.158697095475802463e-01
1.935736591537903506e-01 1.158697095475802463e-01
1.943605439470984242e-01 1.158697095475802463e-01
1.951474287404065255e-01 1.158697095475802463e-01
1.959343135337146269e-01 1.158697095475802463e-01
1.967211983270227005e-01 1.158697095475802463e-01
1.975080831203308018e-01 1.158697095475802463e-01
1.982949679136389032e-01 1.158697095475802463e-01
1.990818527069469768e-01 1.158697095475802463e-01
1.998687375002550781e-01 1.158697095475802463e-01
2.006556222935631517e-01 1.158697095475802463e-01
2.014425070868712531e-01 1.158697095475802463e-01
2.022293918801793544e-01 1.158697095475802463e-01
2.030162766734874280e-01 1.158697095475802463e-01
2.038031614667955294e-01 1.158697095475802463e-01
2.045900462601036029e-01 1.158697095475802463e-01
2.053769310534117043e-01 1.158697095475802463e-01
2.061638158467198056e-01 1.158697095475802463e-01
2.069507006400278792e-01 1.158697095475802463e-01
2.077375854333359806e-01 1.158697095475802463e-01
2.085244702266440819e-01 1.158697095475802463e-01
2.093113550199521555e-01 1.158697095475802463e-01
2.100982398132602569e-01 1.158697095475802463e-01
2.108851246065683305e-01 1.158697095475802463e-01
2.116720093998764318e-01 1.158697095475802463e-01
2.124588941931845332e-01 1.158697095475802463e-01
2.132457789864926068e-01 1.158697095475802463e-01
2.140326637798007081e-01 1.158697095475802463e-01
2.148195485731088095e-01 1.158697095475802463e-01
2.156064333664168831e-01 1.158697095475802463e-01
2.163933181597249844e-01 1.158697095475802463e-01
2.171802029530330580e-01 1.158697095475802463e-01
2.179670877463411593e-01 1.158697095475802463e-01
2.187539725396492607e-01 1.158697095475802463e-01
2.195408573329573343e-01 1.158697095475802463e-01
2.203277421262654356e-01 1.158697095475802463e-01
2.211146269195735370e-01 1.158697095475802463e-01
2.219015117128816106e-01 1.158697095475802463e-01
2.226883965061897119e-01 1.158697095475802463e-01
2.234752812994977855e-01 1.158697095475802463e-01
2.242621660928058869e-01 1.158697095475802463e-01
2.250490508861139882e-01 1.158697095475802463e-01
2.258359356794220618e-01 1.158697095475802463e-01
2.266228204727301632e-01 1.158697095475802463e-01
2.274097052660382368e-01 1.158697095475802463e-01
2.281965900593463381e-01 1.158697095475802463e-01
2.289834748526544395e-01 1.158697095475802463e-01
2.297703596459625131e-01 1.158697095475802463e-01
2.305572444392706144e-01 1.158697095475802463e-01
2.313441292325787157e-01 1.158697095475802463e-01
2.321310140258867893e-01 1.158697095475802463e-01
2.329178988191948907e-01 1.158697095475802463e-01
2.337047836125029643e-01 1.158697095475802463e-01
2.344916684058110656e-01 1.158697095475802463e-01
2.352785531991191670e-01 1.158697095475802463e-01
2.360654379924272406e-01 1.158697095475802463e-01
2.368523227857353419e-01 1.158697095475802463e-01
2.376392075790434433e-01 1.158697095475802463e-01
2.384260923723515169e-01 1.158697095475802463e-01
2.392129771656596182e-01 1.158697095475802463e-01
2.399998619589676918e-01 1.158697095475802463e-01
2.407867467522757932e-01 1.158697095475802463e-01
2.415736315455838945e-01 1.158697095475802463e-01
2.423605163388919681e-01 1.158697095475802463e-01
2.431474011322000695e-01 1.158697095475802463e-01
2.439342859255081708e-01 1.158697095475802463e-01
2.447211707188162444e-01 1.158697095475802463e-01
2.455080555121243457e-01 1.158697095475802463e-01
2.462949403054324193e-01 1.158697095475802463e-01
2.470818250987405207e-01 1.158697095475802463e-01
2.478687098920486220e-01 1.158697095475802463e-01
2.486555946853566956e-01 1.158697095475802463e-01
2.494424794786647970e-01 1.158697095475802463e-01
2.502293642719728983e-01 1.158697095475802463e-01
2.510162490652809719e-01 1.158697095475802463e-01
2.518031338585890455e-01 1.158697095475802463e-01
2.525900186518971746e-01 1.158697095475802463e-01
2.533769034452052482e-01 1.158697095475802463e-01
2.541637882385133218e-01 1.158697095475802463e-01
2.549506730318214509e-01 1.158697095475804684e-01
2.557375578251295245e-01 1.158697095475809125e-01
2.565244426184375981e-01 1.158697095475813565e-01
2.573113274117457272e-01 1.158697095475831329e-01
2.580982122050538008e-01 1.158697095475857974e-01
2.588850969983618744e-01 1.158697095475946792e-01
2.596719817916699480e-01 1.158697095476077799e-01
2.604588665849780771e-01 1.158697095476479699e-01
2.612457513782861507e-01 1.158697095477068117e-01
2.620326361715942243e-01 1.158697095478724570e-01
2.628195209649023534e-01 1.158697095481129313e-01
2.636064057582104270e-01 1.158697095487386530e-01
2.643932905515185006e-01 1.158697095496430407e-01
2.651801753448266297e-01 1.158697095518108622e-01
2.659670601381347033e-01 1.158697095549447997e-01
2.667539449314427769e-01 1.158697095618659301e-01
2.675408297247509060e-01 1.158697095719087855e-01
2.683277145180589796e-01 1.158697095923855169e-01
2.691145993113670531e-01 1.158697096222849332e-01
2.699014841046751823e-01 1.158697096788323666e-01
2.706883688979832558e-01 1.158697097620764449e-01
2.714752536912913294e-01 1.158697099091974270e-01
2.722621384845994030e-01 1.158697101276635610e-01
2.730490232779075321e-01 1.158697104922470356e-01
2.738359080712156057e-01 1.158697110376447625e-01
2.746227928645236793e-01 1.158697119079150628e-01
2.754096776578318084e-01 1.158697132152852749e-01
2.761965624511398820e-01 1.158697152353802551e-01
2.769834472444479556e-01 1.158697182695362926e-01
2.777703320377560847e-01 1.158697228572047599e-01
2.785572168310641583e-01 1.158697297160111717e-01
2.793441016243722319e-01 1.158697399328696420e-01
2.801309864176803610e-01 1.158697550853340363e-01
2.809178712109884346e-01 1.158697773917205520e-01
2.817047560042965082e-01 1.158698101447157569e-01
2.824916407976045818e-01 1.158698578362988840e-01
2.832785255909127109e-01 1.158699271062071379e-01
2.840654103842207845e-01 1.158700268768217967e-01
2.848522951775288581e-01 1.158701701746451818e-01
2.856391799708369872e-01 1.158703743400459896e-01
2.864260647641450608e-01 1.158706642474363058e-01
2.872129495574531344e-01 1.158710728919203348e-01
2.879998343507612635e-01 1.158716464724869333e-01
2.887867191440693371e-01 1.158724463821956263e-01
2.895736039373774107e-01 1.158735561643364775e-01
2.903604887306855398e-01 1.158750871327889342e-01
2.911473735239936134e-01 1.158771868242920444e-01
2.919342583173016870e-01 1.158800512207447397e-01
2.927211431106098161e-01 1.158839350660423317e-01
2.935080279039178897e-01 1.158891730445850143e-01
2.942949126972259632e-01 1.158961949899544042e-01
2.950817974905340368e-01 1.159055556829389211e-01
2.958686822838421659e-01 1.159179612198639742e-01
2.966555670771502395e-01 1.159343061491100446e-01
2.974424518704583131e-01 1.159557166957765340e-01
2.982293366637664422e-01 1.159835960546797828e-01
2.990162214570745158e-01 1.160196851783210636e-01
2.998031062503825894e-01 1.160661219522600707e-01
3.005899910436907185e-01 1.161255144865676048e-01
3.013768758369987921e-01 1.162010179596730808e-01
3.021637606303068657e-01 1.162964135188595538e-01
3.029506454236149948e-01 1.164161998010970756e-01
3.037375302169230684e-01 1.165656754794146543e-01
3.045244150102311420e-01 1.167510153588735555e-01
3.053112998035392156e-01 1.169793623648225367e-01
3.060981845968473447e-01 1.172588638146889739e-01
3.068850693901554183e-01 1.175987312477382307e-01
3.076719541834634919e-01 1.180092247197610522e-01
3.084588389767716210e-01 1.185016356020187622e-01
3.092457237700796946e-01 1.190881796355487410e-01
3.100326085633877682e-01 1.197818488525106417e-01
3.108194933566958973e-01 1.205961857188471154e-01
3.116063781500039709e-01 1.215449391131688817e-01
3.123932629433120445e-01 1.226415826971953837e-01
3.131801477366201736e-01 1.238988751670266897e-01
3.139670325299282472e-01 1.253280286194933257e-01
3.147539173232363208e-01 1.269379397397538689e-01
3.155408021165444499e-01 1.287342803889586218e-01
3.163276869098525235e-01 1.307182351963347422e-01
3.171145717031605971e-01 1.328853169299599735e-01
3.179014564964686707e-01 1.352241340037265704e-01
3.186883412897767998e-01 1.377146554143322543e-01
3.194752260830848734e-01 1.403267748270644599e-01
3.202621108763929469e-01 1.430186832063562452e-01
3.210489956697010761e-01 1.457358158120287683e-01
3.218358804630091496e-01 1.484085786684508079e-01
3.226227652563172232e-01 1.509518220626591134e-01
3.234096500496253523e-01 1.532631174473007007e-01
3.241965348429334259e-01 1.552231403510897501e-01
3.249834196362414995e-01 1.566941866007856010e-01
3.257703044295496286e-01 1.575212731887580819e-01
3.265571892228577022e-01 1.575328562300943869e-01
3.273440740161657758e-01 1.565416925111282609e-01
3.281309588094738494e-01 1.543485728664002465e-01
3.289178436027819785e-01 1.507450025518588532e-01
3.297047283960900521e-01 1.455161688009058985e-01
3.304916131893981257e-01 1.384482161230862207e-01
3.312784979827062548e-01 1.293309266772901811e-01
3.320653827760143284e-01 1.179657613913587255e-01
3.328522675693224020e-01 1.041756241787468173e-01
3.336391523626305311e-01 8.780811667741139637e-02
3.344260371559386047e-01 6.874377082464500077e-02
3.352129219492466783e-01 4.691059945445785750e-02
3.359998067425548074e-01 2.228486211849145526e-02
3.367866915358628810e-01 -5.101659615290854433e-03
3.375735763291709546e-01 -3.514749447567899754e-02
3.383604611224790837e-01 -6.768263021959008974e-02
3.391473459157871573e-01 -1.024658332588652687e-01
3.399342307090952309e-01 -1.391769904511226397e-01
3.407211155024033045e-01 -1.774197894729586666e-01
3.415080002957114336e-01 -2.167263137454371602e-01
3.422948850890195072e-01 -2.565604886282055741e-01
3.430817698823275808e-01 -2.963249738077281537e-01
3.438686546756357099e-01 -3.353695873273486727e-01
3.446555394689437835e-01 -3.730127485729046732e-01
3.454424242622518570e-01 -4.085399466308977656e-01
3.462293090555599862e-01 -4.412496895433807298e-01
3.470161938488680597e-01 -4.704328271432587361e-01
3.478030786421761333e-01 -4.954207977719206069e-01
3.485899634354842624e-01 -5.156086029066828669e-01
3.493768482287923360e-01 -5.304486805934709448e-01
3.501637330221004096e-01 -5.394899623134741251e-01
3.509506178154085387e-01 -5.423855311922927136e-01
3.517375026087166123e-01 -5.389056409554898730e-01
3.525243874020246859e-01 -5.289499690632282203e-01
3.533112721953327595e-01 -5.125698255167987494e-01
3.540981569886408886e-01 -4.899260327083070354e-01
3.548850417819489622e-01 -4.613325772128168412e-01
3.556719265752570358e-01 -4.272290402354171901e-01
3.564588113685651649e-01 -3.881637495510973368e-01
3.572456961618732385e-01 -3.447937795047464338e-01
3.580325809551813121e-01 -2.978428308608406239e-01
3.588194657484894412e-01 -2.481150155799085599e-01
3.596063505417975148e-01 -1.964266987571157141e-01
3.603932353351055884e-01 -1.436042011595198842e-01
3.611801201284137175e-01 -9.046082459862725411e-02
3.619670049217217911e-01 -3.777847222843788710e-02
3.627538897150298647e-01 1.374136399310121881e-02
3.635407745083379383e-01 6.348526151324396238e-02
3.643276593016460674e-01 1.109236551694132711e-01
3.651145440949541410e-01 1.556510427872281888e-01
3.659014288882622146e-01 1.973936433896517073e-01
3.666883136815703437e-01 2.359825934649726342e-01
3.674751984748784173e-01 2.713796019674512561e-01
3.682620832681864909e-01 3.036625911751680285e-01
3.690489680614946200e-01 3.330055938910083668e-01
3.698358528548026936e-01 3.596730097858031883e-01
3.706227376481107672e-01 3.839985453231724577e-01
3.714096224414188963e-01 4.063686528822412214e-01
3.721965072347269698e-01 4.271775148469940664e-01
3.729833920280350434e-01 4.468401822213430297e-01
3.737702768213431725e-01 4.657343722396045660e-01
3.745571616146512461e-01 4.842202839826688088e-01
3.753440464079593197e-01 5.025816062356585068e-01
3.761309312012673933e-01 5.210133840128088334e-01
3.769178159945755224e-01 5.396713661426648656e-01
3.777047007878835960e-01 5.585714434092088343e-01
3.784915855811916696e-01 5.776488082175263994e-01
3.792784703744997987e-01 5.967489561980590107e-01
3.800653551678078723e-01 6.156013611126573970e-01
3.808522399611159459e-01 6.338805490725358815e-01
3.816391247544240750e-01 6.511635954775021329e-01
3.824260095477321486e-01 6.669973258012293904e-01
3.832128943410402222e-01 6.808824248072751217e-01
3.839997791343483513e-01 6.922989000944974602e-01
3.847866639276564249e-01 7.007474364264536515e-01
3.855735487209644985e-01 7.057336964026472703e-01
3.863604335142725721e-01 7.068341810571994177e-01
3.871473183075807012e-01 7.036835938137560031e-01
3.879342031008887748e-01 6.959970492920153351e-01
3.887210878941968484e-01 6.835903675619703357e-01
3.895079726875049775e-01 6.663938589203752816e-01
3.902948574808130511e-01 6.444354758306201081e-01
3.910817422741211247e-01 6.178607242665146160e-01
3.918686270674292538e-01 5.869361099064056564e-01
3.926555118607373274e-01 5.520284609684771304e-01
3.934423966540454010e-01 5.135980358225178399e-01
3.942292814473535301e-01 4.722031179154086988e-01
3.950161662406616037e-01 4.284540665162370754e-01
3.958030510339696773e-01 3.830102534326367270e-01
3.965899358272778064e-01 3.365708731598100467e-01
3.973768206205858800e-01 2.898550315367445229e-01
3.981637054138939535e-01 2.435420117148583419e-01
3.989505902072020271e-01 1.983103310246545625e-01
3.997374750005101562e-01 1.547925575417492539e-01
4.005243597938182298e-01 1.135408481457058638e-01
4.013112445871263034e-01 7.507979016315480258e-02
4.020981293804344325e-01 3.980531300704215347e-02
4.028850141737425061e-01 8.064333551767832731e-03
4.036718989670505797e-01 -1.989885133085078639e-02
4.044587837603587088e-01 -4.392801417419645027e-02
4.052456685536667824e-01 -6.396342094691553903e-02
4.060325533469748560e-01 -8.000660329083775224e-02
4.068194381402829851e-01 -9.215022553665264127e-02
4.076063229335910587e-01 -1.005512809718918099e-01
4.083932077268991323e-01 -1.054004590043380318e-01
4.091800925202072059e-01 -1.069665627750823189e-01
4.099669773135153350e-01 -1.055582181127846519e-01
4.107538621068234086e-01 -1.014809875624461677e-01
4.115407469001314822e-01 -9.506264247559648162e-02
4.123276316934396113e-01 -8.664397315931715582e-02
4.131145164867476849e-01 -7.656423827885960876e-02
4.139014012800557585e-01 -6.512517127465100586e-02
4.146882860733638876e-01 -5.264305618449927060e-02
4.154751708666719612e-01 -3.937597465668851715e-02
4.162620556599800348e-01 -2.559272983230964638e-02
4.170489404532881639e-01 -1.152536544854398937e-02
4.178358252465962375e-01 2.656106251525347517e-03
4.186227100399043111e-01 1.676405914377498974e-02
4.194095948332124402e-01 3.066447456811638439e-02
4.201964796265205138e-01 4.426545401477555153e-02
4.209833644198285874e-01 5.747433315306227364e-02
4.217702492131366609e-01 7.022295392156063798e-02
4.225571340064447901e-01 8.248298094642358969e-02
4.233440187997528636e-01 9.422761049563299629e-02
4.241309035930609372e-01 1.054568425691893019e-01
4.249177883863690663e-01 1.161683797043482347e-01
4.257046731796771399e-01 1.263874939912972284e-01
4.264915579729852135e-01 1.361340967738213781e-01
4.272784427662933426e-01 1.454441816349156813e-01
4.280653275596014162e-01 1.543644636503820333e-01
4.288522123529094898e-01 1.629401262541931850e-01
4.296390971462176189e-01 1.712286060149585953e-01
4.304259819395256925e-01 1.792842762176276583e-01
4.312128667328337661e-01 1.871791240281912572e-01
4.319997515261418397e-01 1.949927948217871077e-01
4.327866363194499688e-01 2.027980415853201102e-01
4.335735211127580424e-01 2.106599590965476665e-01
4.343604059060661160e-01 2.186957179554323005e-01
4.351472906993742451e-01 2.269880268207715712e-01
4.359341754926823187e-01 2.356226576350215485e-01
4.367210602859903923e-01 2.447037620425938087e-01
4.375079450792985214e-01 2.543308967624107186e-01
4.382948298726065950e-01 2.645883020950994258e-01
4.390817146659146686e-01 2.755563892367125511e-01
4.398685994592227977e-01 2.873331832643433170e-01
4.406554842525308713e-01 2.999745891047711499e-01
4.414423690458389449e-01 3.135303851174575662e-01
4.422292538391470740e-01 3.280396281690567406e-01
4.430161386324551476e-01 3.435199321406088302e-01
4.438030234257632212e-01 3.599552147929030443e-01
4.445899082190712948e-01 3.773255647821553982e-01
4.453767930123794239e-01 3.955651215096933626e-01
4.461636778056874975e-01 4.146018978095271645e-01
4.469505625989955711e-01 4.343194889026087413e-01
4.477374473923037002e-01 4.545716229942133868e-01
4.485243321856117737e-01 4.752112624687012676e-01
4.493112169789198473e-01 4.960469520973753710e-01
4.500981017722279764e-01 5.168673253077535890e-01
4.508849865655360500e-01 5.374541231391209983e-01
4.516718713588441236e-01 5.575484981222789127e-01
4.524587561521522527e-01 5.769306596546828203e-01
4.532456409454603263e-01 5.953318045952413762e-01
4.540325257387683999e-01 6.124969145793299763e-01
4.548194105320764735e-01 6.281763319887272434e-01
4.556062953253846026e-01 6.421242283097858827e-01
4.563931801186926762e-01 6.541345977164272352e-01
4.571800649120007498e-01 6.639960736361698590e-01
4.579669497053088789e-01 6.715263906912936065e-01
4.587538344986169525e-01 6.765769796243294998e-01
4.595407192919250261e-01 6.790322014771441594e-01
4.603276040852331552e-01 6.788177716210030965e-01
4.611144888785412288e-01 6.758911869951356177e-01
4.619013736718493024e-01 6.702390457335327678e-01
4.626882584651574315e-01 6.619088287329115694e-01
4.634751432584655051e-01 6.509648649501142970e-01
4.642620280517735787e-01 6.375247078955610380e-01
4.650489128450817078e-01 6.217277369757434613e-01
4.658357976383897814e-01 6.037527713742651958e-01
4.666226824316978550e-01 5.838008390812581272e-01
4.674095672250059286e-01 5.620917306992667672e-01
4.681964520183140577e-01 5.388705089210239496e-01
4.689833368116221313e-01 5.143918092006969367e-01
4.697702216049302049e-01 4.889087353506236244e-01