0.000000000000000000e+00 1.480004918484825183e-01
7.868847933080908323e-04 1.158697095475802463e-01
1.573769586616181665e-03 1.158697095475802463e-01
2.360654379924272388e-03 1.158697095475802463e-01
3.147539173232363329e-03 1.158697095475802463e-01
3.934423966540453836e-03 1.158697095475802463e-01
4.721308759848544777e-03 1.158697095475802463e-01
5.508193553156635718e-03 1.158697095475802463e-01
6.295078346464726658e-03 1.158697095475802463e-01
7.081963139772817599e-03 1.158697095475802463e-01
7.868847933080907672e-03 1.158697095475802463e-01
8.655732726388998613e-03 1.158697095475802463e-01
9.442617519697089554e-03 1.158697095475802463e-01
1.022950231300518049e-02 1.158697095475802463e-01
1.101638710631327144e-02 1.158697095475802463e-01
1.180327189962136238e-02 1.158697095475802463e-01
1.259015669292945332e-02 1.158697095475802463e-01
1.337704148623754426e-02 1.158697095475802463e-01
1.416392627954563520e-02 1.158697095475802463e-01
1.495081107285372614e-02 1.158697095475802463e-01
1.573769586616181534e-02 1.158697095475802463e-01
1.652458065946990629e-02 1.158697095475802463e-01
1.731146545277799723e-02 1.158697095475802463e-01
1.809835024608608817e-02 1.158697095475802463e-01
1.888523503939417911e-02 1.158697095475802463e-01
1.967211983270227005e-02 1.158697095475802463e-01
2.045900462601036099e-02 1.158697095475802463e-01
2.124588941931845193e-02 1.158697095475802463e-01
2.203277421262654287e-02 1.158697095475802463e-01
2.281965900593463381e-02 1.158697095475802463e-01
2.360654379924272475e-02 1.158697095475802463e-01
2.439342859255081569e-02 1.158697095475802463e-01
2.518031338585890663e-02 1.158697095475802463e-01
2.596719817916699757e-02 1.158697095475802463e-01
2.675408297247508851e-02 1.158697095475802463e-01
2.754096776578317946e-02 1.158697095475802463e-01
2.832785255909127040e-02 1.158697095475802463e-01
2.911473735239936134e-02 1.158697095475802463e-01
2.990162214570745228e-02 1.158697095475802463e-01
3.068850693901554322e-02 1.158697095475802463e-01
3.147539173232363069e-02 1.158697095475802463e-01
3.226227652563172510e-02 1.158697095475802463e-01
3.304916131893981257e-02 1.158697095475802463e-01
3.383604611224790698e-02 1.158697095475802463e-01
3.462293090555599445e-02 1.158697095475802463e-01
3.540981569886408886e-02 1.158697095475802463e-01
3.619670049217217633e-02 1.158697095475802463e-01
3.698358528548027074e-02 1.158697095475802463e-01
3.777047007878835821e-02 1.158697095475802463e-01
3.855735487209645262e-02 1.158697095475802463e-01
3.934423966540454010e-02 1.158697095475802463e-01
4.013112445871263451e-02 1.158697095475802463e-01
4.091800925202072198e-02 1.158697095475802463e-01
4.170489404532881639e-02 1.158697095475802463e-01
4.249177883863690386e-02 1.158697095475802463e-01
4.327866363194499827e-02 1.158697095475802463e-01
4.406554842525308574e-02 1.158697095475802463e-01
4.485243321856118015e-02 1.158697095475802463e-01
4.563931801186926762e-02 1.158697095475802463e-01
4.642620280517736203e-02 1.158697095475802463e-01
4.721308759848544950e-02 1.158697095475802463e-01
4.799997239179354391e-02 1.158697095475802463e-01
4.878685718510163138e-02 1.158697095475802463e-01
4.957374197840972579e-02 1.158697095475802463e-01
5.036062677171781327e-02 1.158697095475802463e-01
5.114751156502590074e-02 1.158697095475802463e-01
5.193439635833399515e-02 1.158697095475802463e-01
5.272128115164208262e-02 1.158697095475802463e-01
5.350816594495017703e-02 1.158697095475802463e-01
5.429505073825826450e-02 1.158697095475802463e-01
5.508193553156635891e-02 1.158697095475802463e-01
5.586882032487444638e-02 1.158697095475802463e-01
5.665570511818254079e-02 1.158697095475802463e-01
5.744258991149062826e-02 1.158697095475802463e-01
5.822947470479872267e-02 1.158697095475802463e-01
5.901635949810681014e-02 1.158697095475802463e-01
5.980324429141490455e-02 1.158697095475802463e-01
6.059012908472299203e-02 1.158697095475802463e-01
6.137701387803108644e-02 1.158697095475802463e-01
6.216389867133917391e-02 1.158697095475802463e-01
6.295078346464726138e-02 1.158697095475802463e-01
6.373766825795536273e-02 1.158697095475802463e-01
6.452455305126345020e-02 1.158697095475802463e-01
6.531143784457153767e-02 1.158697095475802463e-01
6.609832263787962514e-02 1.158697095475802463e-01
6.688520743118772649e-02 1.158697095475802463e-01
6.767209222449581396e-02 1.158697095475802463e-01
6.845897701780390143e-02 1.158697095475802463e-01
6.924586181111198890e-02 1.158697095475802463e-01
7.003274660442009025e-02 1.158697095475802463e-01
7.081963139772817772e-02 1.158697095475802463e-01
7.160651619103626520e-02 1.158697095475802463e-01
7.239340098434435267e-02 1.158697095475802463e-01
7.318028577765245402e-02 1.158697095475802463e-01
7.396717057096054149e-02 1.158697095475802463e-01
7.475405536426862896e-02 1.158697095475802463e-01
7.554094015757671643e-02 1.158697095475802463e-01
7.632782495088480390e-02 1.158697095475802463e-01
7.711470974419290525e-02 1.158697095475802463e-01
7.790159453750099272e-02 1.158697095475802463e-01
7.868847933080908019e-02 1.158697095475802463e-01
7.947536412411716766e-02 1.158697095475802463e-01
8.026224891742526901e-02 1.158697095475802463e-01
8.104913371073335648e-02 1.158697095475802463e-01
8.183601850404144396e-02 1.158697095475802463e-01
8.262290329734953143e-02 1.158697095475802463e-01
8.340978809065763278e-02 1.158697095475802463e-01
8.419667288396572025e-02 1.158697095475802463e-01
8.498355767727380772e-02 1.158697095475802463e-01
8.577044247058189519e-02 1.158697095475802463e-01
8.655732726388999654e-02 1.158697095475802463e-01
8.734421205719808401e-02 1.158697095475802463e-01
8.813109685050617148e-02 1.158697095475802463e-01
8.891798164381425895e-02 1.158697095475802463e-01
8.970486643712236030e-02 1.158697095475802463e-01
9.049175123043044777e-02 1.158697095475802463e-01
9.127863602373853524e-02 1.158697095475802463e-01
9.206552081704662271e-02 1.158697095475802463e-01
9.285240561035472406e-02 1.158697095475802463e-01
9.363929040366281153e-02 1.158697095475802463e-01
9.442617519697089901e-02 1.158697095475802463e-01
9.521305999027898648e-02 1.158697095475802463e-01
9.599994478358708783e-02 1.158697095475802463e-01
9.678682957689517530e-02 1.158697095475802463e-01
9.757371437020326277e-02 1.158697095475802463e-01
9.836059916351135024e-02 1.158697095475802463e-01
9.914748395681945159e-02 1.158697095475802463e-01
9.993436875012753906e-02 1.158697095475802463e-01
1.007212535434356265e-01 1.158697095475802463e-01
1.015081383367437140e-01 1.158697095475802463e-01
1.022950231300518015e-01 1.158697095475802463e-01
1.030819079233599028e-01 1.158697095475802463e-01
1.038687927166679903e-01 1.158697095475802463e-01
1.046556775099760778e-01 1.158697095475802463e-01
1.054425623032841652e-01 1.158697095475802463e-01
1.062294470965922666e-01 1.158697095475802463e-01
1.070163318899003541e-01 1.158697095475802463e-01
1.078032166832084415e-01 1.158697095475802463e-01
1.085901014765165290e-01 1.158697095475802463e-01
1.093769862698246303e-01 1.158697095475802463e-01
1.101638710631327178e-01 1.158697095475802463e-01
1.109507558564408053e-01 1.158697095475802463e-01
1.117376406497488928e-01 1.158697095475802463e-01
1.125245254430569941e-01 1.158697095475802463e-01
1.133114102363650816e-01 1.158697095475802463e-01
1.140982950296731691e-01 1.158697095475802463e-01
1.148851798229812565e-01 1.158697095475802463e-01
1.156720646162893579e-01 1.158697095475802463e-01
1.164589494095974453e-01 1.158697095475802463e-01
1.172458342029055328e-01 1.158697095475802463e-01
1.180327189962136203e-01 1.158697095475802463e-01
1.188196037895217216e-01 1.158697095475802463e-01
1.196064885828298091e-01 1.158697095475802463e-01
1.203933733761378966e-01 1.158697095475802463e-01
1.211802581694459841e-01 1.158697095475802463e-01
1.219671429627540854e-01 1.158697095475802463e-01
1.227540277560621729e-01 1.158697095475802463e-01
1.235409125493702603e-01 1.158697095475802463e-01
1.243277973426783478e-01 1.158697095475802463e-01
1.251146821359864492e-01 1.158697095475802463e-01
1.259015669292945228e-01 1.158697095475802463e-01
1.266884517226026241e-01 1.158697095475802463e-01
1.274753365159107255e-01 1.158697095475802463e-01
1.282622213092187990e-01 1.158697095475802463e-01
1.290491061025269004e-01 1.158697095475802463e-01
1.298359908958349740e-01 1.158697095475802463e-01
1.306228756891430753e-01 1.158697095475802463e-01
1.314097604824511767e-01 1.158697095475802463e-01
1.321966452757592503e-01 1.158697095475802463e-01
1.329835300690673516e-01 1.158697095475802463e-01
1.337704148623754530e-01 1.158697095475802463e-01
1.345572996556835266e-01 1.158697095475802463e-01
1.353441844489916279e-01 1.158697095475802463e-01
1.361310692422997015e-01 1.158697095475802463e-01
1.369179540356078029e-01 1.158697095475802463e-01
1.377048388289159042e-01 1.158697095475802463e-01
1.384917236222239778e-01 1.158697095475802463e-01
1.392786084155320792e-01 1.158697095475802463e-01
1.400654932088401805e-01 1.158697095475802463e-01
1.408523780021482541e-01 1.158697095475802463e-01
1.416392627954563554e-01 1.158697095475802463e-01
1.424261475887644290e-01 1.158697095475802463e-01
1.432130323820725304e-01 1.158697095475802463e-01
1.439999171753806317e-01 1.158697095475802463e-01
1.447868019686887053e-01 1.158697095475802463e-01
1.455736867619968067e-01 1.158697095475802463e-01
1.463605715553049080e-01 1.158697095475802463e-01
1.471474563486129816e-01 1.158697095475802463e-01
1.479343411419210830e-01 1.158697095475802463e-01
1.487212259352291566e-01 1.158697095475802463e-01
1.495081107285372579e-01 1.158697095475802463e-01
1.502949955218453593e-01 1.158697095475802463e-01
1.510818803151534329e-01 1.158697095475802463e-01
1.518687651084615342e-01 1.158697095475802463e-01
1.526556499017696078e-01 1.158697095475802463e-01
1.534425346950777092e-01 1.158697095475802463e-01
1.542294194883858105e-01 1.158697095475802463e-01
1.550163042816938841e-01 1.158697095475802463e-01
1.558031890750019854e-01 1.158697095475802463e-01
1.565900738683100868e-01 1.158697095475802463e-01
1.573769586616181604e-01 1.158697095475802463e-01
1.581638434549262617e-01 1.158697095475802463e-01
1.589507282482343353e-01 1.158697095475802463e-01
1.597376130415424367e-01 1.158697095475802463e-01
1.605244978348505380e-01 1.158697095475802463e-01
1.613113826281586116e-01 1.158697095475802463e-01
1.620982674214667130e-01 1.158697095475802463e-01
1.628851522147748143e-01 1.158697095475802463e-01
1.636720370080828879e-01 1.158697095475802463e-01
1.644589218013909893e-01 1.158697095475802463e-01
1.652458065946990629e-01 1.158697095475802463e-01
1.660326913880071642e-01 1.158697095475802463e-01
1.668195761813152656e-01 1.158697095475802463e-01
1.676064609746233391e-01 1.158697095475802463e-01
1.683933457679314405e-01 1.158697095475802463e-01
1.691802305612395418e-01 1.158697095475802463e-01
1.699671153545476154e-01 1.158697095475802463e-01
1.707540001478557168e-01 1.158697095475802463e-01
1.715408849411637904e-01 1.158697095475802463e-01
1.723277697344718917e-01 1.158697095475802463e-01
1.731146545277799931e-01 1.158697095475802463e-01
1.739015393210880667e-01 1.158697095475802463e-01
1.746884241143961680e-01 1.158697095475802463e-01
1.754753089077042694e-01 1.158697095475802463e-01
1.762621937010123430e-01 1.158697095475802463e-01
1.770490784943204443e-01 1.158697095475802463e-01
1.778359632876285179e-01 1.158697095475802463e-01
1.786228480809366193e-01 1.158697095475802463e-01
1.794097328742447206e-01 1.158697095475802463e-01
1.801966176675527942e-01 1.158697095475802463e-01
1.809835024608608955e-01 1.158697095475802463e-01
1.817703872541689691e-01 1.158697095475802463e-01
1.825572720474770705e-01 1.158697095475802463e-01
1.833441568407851718e-01 1.158697095475802463e-01
1.841310416340932454e-01 1.158697095475802463e-01
1.849179264274013468e-01 1.158697095475802463e-01
1.857048112207094481e-01 1.158697095475802463e-01
1.864916960140175217e-01 1.158697095475802463e-01
1.872785808073256231e-01 1.158697095475802463e-01
1.880654656006336967e-01 1.158697095475802463e-01
1.888523503939417980e-01 1.158697095475802463e-01
1.896392351872498994e-01 1.158697095475802463e-01
1.904261199805579730e-01 1.158697095475802463e-01
1.912130047738660743e-01 1.158697095475802463e-01
1.919998895671741757e-01 1.158697095475802463e-01
1.927867743604822492e-01 1.158697095475802463e-01
1.935736591537903506e-01 1.158697095475802463e-01
1.943605439470984242e-01 1.158697095475802463e-01
1.951474287404065255e-01 1.158697095475802463e-01
1.959343135337146269e-01 1.158697095475802463e-01
1.967211983270227005e-01 1.158697095475802463e-01
1.975080831203308018e-01 1.158697095475802463e-01
1.982949679136389032e-01 1.158697095475802463e-01
1.990818527069469768e-01 1.158697095475802463e-01
1.998687375002550781e-01 1.158697095475802463e-01
2.006556222935631517e-01 1.158697095475802463e-01
2.014425070868712531e-01 1.158697095475802463e-01
2.022293918801793544e-01 1.158697095475802463e-01
2.030162766734874280e-01 1.158697095475802463e-01
2.038031614667955294e-01 1.158697095475802463e-01
2.045900462601036029e-01 1.158697095475802463e-01
2.053769310534117043e-01 1.158697095475802463e-01
2.061638158467198056e-01 1.158697095475802463e-01
2.069507006400278792e-01 1.158697095475802463e-01
2.077375854333359806e-01 1.158697095475802463e-01
2.085244702266440819e-01 1.158697095475802463e-01
2.093113550199521555e-01 1.158697095475802463e-01
2.100982398132602569e-01 1.158697095475802463e-01
2.108851246065683305e-01 1.158697095475802463e-01
2.116720093998764318e-01 1.158697095475802463e-01
2.124588941931845332e-01 1.158697095475802463e-01
2.132457789864926068e-01 1.158697095475802463e-01
2.140326637798007081e-01 1.158697095475802463e-01
2.148195485731088095e-01 1.158697095475802463e-01
2.156064333664168831e-01 1.158697095475802463e-01
2.163933181597249844e-01 1.158697095475802463e-01
2.171802029530330580e-01 1.158697095475802463e-01
2.179670877463411593e-01 1.158697095475802463e-01
2.187539725396492607e-01 1.158697095475802463e-01
2.195408573329573343e-01 1.158697095475802463e-01
2.203277421262654356e-01 1.158697095475802463e-01
2.211146269195735370e-01 1.158697095475802463e-01
2.219015117128816106e-01 1.158697095475802463e-01
2.226883965061897119e-01 1.158697095475802463e-01
2.234752812994977855e-01 1.158697095475802463e-01
2.242621660928058869e-01 1.158697095475802463e-01
2.250490508861139882e-01 1.158697095475802463e-01
2.258359356794220618e-01 1.158697095475802463e-01
2.266228204727301632e-01 1.158697095475802463e-01
2.274097052660382368e-01 1.158697095475802463e-01
2.281965900593463381e-01 1.158697095475802463e-01
2.289834748526544395e-01 1.158697095475802463e-01
2.297703596459625131e-01 1.158697095475802463e-01
2.305572444392706144e-01 1.158697095475802463e-01
2.313441292325787157e-01 1.158697095475802463e-01
2.321310140258867893e-01 1.158697095475802463e-01
2.329178988191948907e-01 1.158697095475802463e-01
2.337047836125029643e-01 1.158697095475802463e-01
2.344916684058110656e-01 1.158697095475802463e-01
2.352785531991191670e-01 1.158697095475802463e-01
2.360654379924272406e-01 1.158697095475802463e-01
2.368523227857353419e-01 1.158697095475802463e-01
2.376392075790434433e-01 1.158697095475802463e-01
2.384260923723515169e-01 1.158697095475802463e-01
2.392129771656596182e-01 1.158697095475802463e-01
2.399998619589676918e-01 1.158697095475802463e-01
2.407867467522757932e-01 1.158697095475802463e-01
2.415736315455838945e-01 1.158697095475802463e-01
2.423605163388919681e-01 1.158697095475802463e-01
2.431474011322000695e-01 1.158697095475802463e-01
2.439342859255081708e-01 1.158697095475802463e-01
2.447211707188162444e-01 1.158697095475802463e-01
2.455080555121243457e-01 1.158697095475802463e-01
2.462949403054324193e-01 1.158697095475802463e-01
2.470818250987405207e-01 1.158697095475802463e-01
2.478687098920486220e-01 1.158697095475802463e-01
2.486555946853566956e-01 1.158697095475802463e-01
2.494424794786647970e-01 1.158697095475802463e-01
2.502293642719728983e-01 1.158697095475802463e-01
2.510162490652809719e-01 1.158697095475802463e-01
2.518031338585890455e-01 1.158697095475802463e-01
2.525900186518971746e-01 1.158697095475802463e-01
2.533769034452052482e-01 1.158697095475802463e-01
2.541637882385133218e-01 1.158697095475802463e-01
2.549506730318214509e-01 1.158697095475802463e-01
2.557375578251295245e-01 1.158697095475802463e-01
2.565244426184375981e-01 1.158697095475800243e-01
2.573113274117457272e-01 1.158697095475800243e-01
2.580982122050538008e-01 1.158697095475798022e-01
2.588850969983618744e-01 1.158697095475784700e-01
2.596719817916699480e-01 1.158697095475764716e-01
2.604588665849780771e-01 1.158697095475706984e-01
2.612457513782861507e-01 1.158697095475600403e-01
2.620326361715942243e-01 1.158697095475309524e-01
2.628195209649023534e-01 1.158697095474809924e-01
2.636064057582104270e-01 1.158697095473504302e-01
2.643932905515185006e-01 1.158697095471337146e-01
2.651801753448266297e-01 1.158697095466059146e-01
2.659670601381347033e-01 1.158697095457490445e-01
2.667539449314427769e-01 1.158697095438070424e-01
2.675408297247509060e-01 1.158697095407110744e-01
2.683277145180589796e-01 1.158697095341783001e-01
2.691145993113670531e-01 1.158697095239238362e-01
2.699014841046751823e-01 1.158697095037330982e-01
2.706883688979832558e-01 1.158697094724265853e-01
2.714752536912913294e-01 1.158697094146996509e-01
2.722621384845994030e-01 1.158697093259815070e-01
2.730490232779075321e-01 1.158697091718692285e-01
2.738359080712156057e-01 1.158697089364122412e-01
2.746227928645236793e-01 1.158697085477577993e-01
2.754096776578318084e-01 1.158697079562573951e-01
2.761965624511398820e-01 1.158697070184113720e-01
2.769834472444479556e-01 1.158697055958763933e-01
2.777703320377560847e-01 1.158697034044879892e-01
2.785572168310641583e-01 1.158697000955031253e-01
2.793441016243722319e-01 1.158696950947937232e-01
2.801309864176803610e-01 1.158696875946456650e-01
2.809178712109884346e-01 1.158696764064530704e-01
2.817047560042965082e-01 1.158696597787285398e-01
2.824916407976045818e-01 1.158696352339181335e-01
2.832785255909127109e-01 1.158695991465614750e-01
2.840654103842207845e-01 1.158695464247587736e-01
2.848522951775288581e-01 1.158694697927118433e-01
2.856391799708369872e-01 1.158693590533383944e-01
2.864260647641450608e-01 1.158691999359957592e-01
2.872129495574531344e-01 1.158689725894848088e-01
2.879998343507612635e-01 1.158686496281975398e-01
2.887867191440693371e-01 1.158681934288416926e-01
2.895736039373774107e-01 1.158675526957246849e-01
2.903604887306855398e-01 1.158666579216678372e-01
2.911473735239936134e-01 1.158654155178686640e-01
2.919342583173016870e-01 1.158637003435791790e-01
2.927211431106098161e-01 1.158613461944753009e-01
2.935080279039178897e-01 1.158581336928263816e-01
2.942949126972259632e-01 1.158537755973620964e-01
2.950817974905340368e-01 1.158478977909636054e-01
2.958686822838421659e-01 1.158400173002385181e-01
2.966555670771502395e-01 1.158295138822287296e-01
2.974424518704583131e-01 1.158155983683906154e-01
2.982293366637664422e-01 1.157972717419759601e-01
2.990162214570745158e-01 1.157732819951646785e-01
2.998031062503825894e-01 1.157420681788940975e-01
3.005899910436907185e-01 1.157017031906504290e-01
3.013768758369987921e-01 1.156498237783254446e-01
3.021637606303068657e-01 1.155835576460684244e-01
3.029506454236149948e-01 1.154994439227754466e-01
3.037375302169230684e-01 1.153933448197097533e-01
3.045244150102311420e-01 1.152603658886517390e-01
3.053112998035392156e-01 1.150947623509324114e-01
3.060981845968473447e-01 1.148898701062428529e-01
3.068850693901554183e-01 1.146380309454351210e-01
3.076719541834634919e-01 1.143305388907074338e-01
3.084588389767716210e-01 1.139576304732681233e-01
3.092457237700796946e-01 1.135084817418481329e-01
3.100326085633877682e-01 1.129712733275631820e-01
3.108194933566958973e-01 1.123332861715287123e-01
3.116063781500039709e-01 1.115810825098804138e-01
3.123932629433120445e-01 1.107007893172577973e-01
3.131801477366201736e-01 1.096783944641104291e-01
3.139670325299282472e-01 1.085001849696827225e-01
3.147539173232363208e-01 1.071533273506766193e-01
3.155408021165444499e-01 1.056264778847910701e-01
3.163276869098525235e-01 1.039104467210492100e-01
3.171145717031605971e-01 1.019992568665297750e-01
3.179014564964686707e-01 9.989071256907888774e-02
3.186883412897767998e-01 9.758767369117493651e-02
3.194752260830848734e-01 9.509909076475975276e-02
3.202621108763929469e-01 9.244049559526135162e-02
3.210489956697010761e-01 8.963560469913467443e-02
3.218358804630091496e-01 8.671648682718613443e-02
3.226227652563172232e-01 8.372523819782617949e-02
3.234096500496253523e-01 8.071321667615238837e-02
3.241965348429334259e-01 7.774187939057686236e-02
3.249834196362414995e-01 7.488278273282533704e-02
3.257703044295496286e-01 7.221629003514307144e-02
3.265571892228577022e-01 6.983133225126025856e-02
3.273440740161657758e-01 6.782296690222522351e-02
3.281309588094738494e-01 6.629180371071830002e-02
3.289178436027819785e-01 6.533893103749166542e-02
3.297047283960900521e-01 6.506591588136911852e-02
3.304916131893981257e-01 6.556848585669960983e-02
3.312784979827062548e-01 6.693432745822658347e-02
3.320653827760143284e-01 6.923887404605633122e-02
3.328522675693224020e-01 7.254109383062812277e-02
3.336391523626305311e-01 7.687908640245244563e-02
3.344260371559386047e-01 8.226625362753803294e-02
3.352129219492466783e-01 8.868613035621719654e-02
3.359998067425548074e-01 9.609583061726167941e-02
3.367866915358628810e-01 1.044168577669055686e-01
3.375735763291709546e-01 1.135377848620466867e-01
3.383604611224790837e-01 1.233180837648215622e-01
3.391473459157871573e-01 1.335831473066579900e-01
3.399342307090952309e-01 1.441338620497110146e-01
3.407211155024033045e-01 1.547466082868620418e-01
3.415080002957114336e-01 1.651885764600149464e-01
3.422948850890195072e-01 1.752108747718632564e-01
3.430817698823275808e-01 1.845722696342482205e-01
3.438686546756357099e-01 1.930453122354776063e-01
3.446555394689437835e-01 2.004148068984956677e-01
3.454424242622518570e-01 2.064908300364343141e-01
3.462293090555599862e-01 2.111470211983537126e-01
3.470161938488680597e-01 2.142930135163083616e-01
3.478030786421761333e-01 2.158874526608998146e-01
3.485899634354842624e-01 2.159609714687196202e-01
3.493768482287923360e-01 2.146223165096678986e-01
3.501637330221004096e-01 2.120185253993840391e-01
3.509506178154085387e-01 2.083686229194978701e-01
3.517375026087166123e-01 2.039513678829929511e-01
3.525243874020246859e-01 1.990914683577396094e-01
3.533112721953327595e-01 1.941657082338144047e-01
3.540981569886408886e-01 1.895386182666571884e-01
3.548850417819489622e-01 1.856130202574470811e-01
3.556719265752570358e-01 1.827656980962601985e-01
3.564588113685651649e-01 1.813336129856040202e-01
3.572456961618732385e-01 1.816230932913944773e-01
3.580325809551813121e-01 1.838723093181307000e-01
3.588194657484894412e-01 1.882321277860266040e-01
3.596063505417975148e-01 1.947439030244804137e-01
3.603932353351055884e-01 2.033785338387303909e-01
3.611801201284137175e-01 2.139690712693524954e-01
3.619670049217217911e-01 2.262666235190400332e-01
3.627538897150298647e-01 2.398890459513129958e-01
3.635407745083379383e-01 2.543760801963832474e-01
3.643276593016460674e-01 2.691816959420059163e-01
3.651145440949541410e-01 2.836756225753092053e-01
3.659014288882622146e-01 2.972365878791705107e-01
3.666883136815703437e-01 3.091742042989069628e-01
3.674751984748784173e-01 3.188209631796654620e-01
3.682620832681864909e-01 3.255594214088970428e-01
3.690489680614946200e-01 3.288261262485454584e-01
3.698358528548026936e-01 3.281390891603650495e-01
3.706227376481107672e-01 3.231332050232300634e-01
3.714096224414188963e-01 3.135623581406499216e-01
3.721965072347269698e-01 2.993500621487603652e-01
3.729833920280350434e-01 2.805311618991841449e-01
3.737702768213431725e-01 2.573179812405466116e-01
3.745571616146512461e-01 2.300516933903864469e-01
3.753440464079593197e-01 1.992067244054154251e-01
3.761309312012673933e-01 1.653976455697523384e-01
3.769178159945755224e-01 1.293221197367702135e-01
3.777047007878835960e-01 9.176932535915915956e-02
3.784915855811916696e-01 5.354950096476684962e-02
3.792784703744997987e-01 1.553261911279357754e-02
3.800653551678078723e-01 -2.143738554866259083e-02
3.808522399611159459e-01 -5.657860986560181438e-02
3.816391247544240750e-01 -8.914208098335996144e-02
3.824260095477321486e-01 -1.184668954524740192e-01
3.832128943410402222e-01 -1.440208077371653017e-01
3.839997791343483513e-01 -1.653665340950890572e-01
3.847866639276564249e-01 -1.822191891459435942e-01
3.855735487209644985e-01 -1.943972733329238922e-01
3.863604335142725721e-01 -2.018693879985237194e-01
3.871473183075807012e-01 -2.047236025479436394e-01
3.879342031008887748e-01 -2.031812392255578636e-01
3.887210878941968484e-01 -1.975394365463046809e-01
3.895079726875049775e-01 -1.881887631767266145e-01
3.902948574808130511e-01 -1.755856483820381619e-01
3.910817422741211247e-01 -1.602385972496594979e-01
3.918686270674292538e-01 -1.426898109872614118e-01
3.926555118607373274e-01 -1.234684718469633014e-01
3.934423966540454010e-01 -1.031160152155213838e-01
3.942292814473535301e-01 -8.212486394114515420e-02
3.950161662406616037e-01 -6.097671937923709873e-02
3.958030510339696773e-01 -4.008435900286866360e-02
3.965899358272778064e-01 -1.982150341845700936e-02
3.973768206205858800e-01 -4.944809919180670477e-04
3.981637054138939535e-01 1.766006961407851072e-02
3.989505902072020271e-01 3.445758555906808240e-02
3.997374750005101562e-01 4.978625698949201706e-02
4.005243597938182298e-01 6.356490688838212222e-02
4.013112445871263034e-01 7.577132644920947513e-02
4.020981293804344325e-01 8.643078776216261971e-02
4.028850141737425061e-01 9.558541097755468563e-02
4.036718989670505797e-01 1.033370502770525334e-01
4.044587837603587088e-01 1.097776041704310312e-01
4.052456685536667824e-01 1.150227116158233365e-01
4.060325533469748560e-01 1.192048596314878584e-01
4.068194381402829851e-01 1.224496428474504128e-01
4.076063229335910587e-01 1.248711685800143467e-01
4.083932077268991323e-01 1.265996263846940195e-01
4.091800925202072059e-01 1.277429970104744239e-01
4.099669773135153350e-01 1.284054321017673583e-01
4.107538621068234086e-01 1.286903174820688278e-01
4.115407469001314822e-01 1.286872541984096507e-01
4.123276316934396113e-01 1.284460206102511215e-01
4.131145164867476849e-01 1.280416671672424123e-01
4.139014012800557585e-01 1.275454152144588349e-01
4.146882860733638876e-01 1.270024481858731402e-01
4.154751708666719612e-01 1.264510571272248196e-01
4.162620556599800348e-01 1.259356596515714966e-01
4.170489404532881639e-01 1.254899518791641189e-01
4.178358252465962375e-01 1.251376742583609758e-01
4.186227100399043111e-01 1.249163520139868755e-01
4.194095948332124402e-01 1.248451306689115636e-01
4.201964796265205138e-01 1.249423899250898806e-01
4.209833644198285874e-01 1.252203829171583127e-01
4.217702492131366609e-01 1.256959577052425558e-01
4.225571340064447901e-01 1.263851965285529566e-01
4.233440187997528636e-01 1.272858019243452432e-01
4.241309035930609372e-01 1.283908815043861562e-01
4.249177883863690663e-01 1.297057960150795886e-01
4.257046731796771399e-01 1.312113999335555725e-01
4.264915579729852135e-01 1.328931426624329060e-01
4.272784427662933426e-01 1.347242204696943446e-01
4.280653275596014162e-01 1.366785954442366613e-01
4.288522123529094898e-01 1.387149132566616316e-01
4.296390971462176189e-01 1.408002436076329911e-01
4.304259819395256925e-01 1.428894030631784329e-01
4.312128667328337661e-01 1.449349107265807124e-01
4.319997515261418397e-01 1.468892857011232511e-01
4.327866363194499688e-01 1.486897306717929190e-01
4.335735211127580424e-01 1.503017836974245292e-01
4.343604059060661160e-01 1.516695398512384330e-01
4.351472906993742451e-01 1.527508789829208347e-01
4.359341754926823187e-01 1.535105733303918640e-01
4.367210602859903923e-01 1.539095660269971244e-01
4.375079450792985214e-01 1.539386672217590846e-01
4.382948298726065950e-01 1.535680098990011011e-01
4.390817146659146686e-01 1.528159737606780144e-01
4.398685994592227977e-01 1.516741347767269765e-01
4.406554842525308713e-01 1.501846130974617832e-01
4.414423690458389449e-01 1.483872314104510703e-01
4.422292538391470740e-01 1.463225782241790451e-01
4.430161386324551476e-01 1.440657039882948798e-01
4.438030234257632212e-01 1.416924249733626517e-01
4.445899082190712948e-01 1.393045953610494436e-01
4.453767930123794239e-01 1.369864554519819588e-01
4.461636778056874975e-01 1.348398594278275020e-01
4.469505625989955711e-01 1.329812120676336917e-01
4.477374473923037002e-01 1.315253865086190022e-01
4.485243321856117737e-01 1.305795976788541868e-01
4.493112169789198473e-01 1.302342124462843032e-01
4.500981017722279764e-01 1.305795976788541868e-01
4.508849865655360500e-01 1.316900380052987707e-01
4.516718713588441236e-01 1.336298623824603293e-01
4.524587561521522527e-01 1.364419567815666756e-01
4.532456409454603263e-01 1.401240237398739819e-01
4.540325257387683999e-01 1.446722341528079436e-01
4.548194105320764735e-01 1.500628475720102717e-01
4.556062953253846026e-01 1.562154528014279009e-01
4.563931801186926762e-01 1.630350880476272302e-01
4.571800649120007498e-01 1.704130067407079174e-01
4.579669497053088789e-01 1.782044687277748451e-01
4.587538344986169525e-01 1.862386959448298906e-01
4.595407192919250261e-01 1.943334230141533503e-01
4.603276040852331552e-01 2.022964288861330839e-01
4.611144888785412288e-01 2.099240051974351484e-01
4.619013736718493024e-01 2.169986588082590817e-01
4.626882584651574315e-01 2.233174471761860680e-01
4.634751432584655051e-01 2.286735986542229870e-01
4.642620280517735787e-01 2.329039933875192148e-01
4.650489128450817078e-01 2.358148786846336886e-01
4.658357976383897814e-01 2.372760649900518271e-01
4.666226824316978550e-01 2.371872297639361360e-01
4.674095672250059286e-01 2.354557086755975082e-01
4.681964520183140577e-01 2.320638878439953423e-01
4.689833368116221313e-01 2.269972166717491024e-01
4.697702216049302049e-01 2.202939862045978359e-01
4.705571063982383340e-01 2.120514556987198596e-01