0.000000000000000000e+00 1.182925983164029304e-02
7.868847933080908323e-04 1.319138727521136367e-01
1.573769586616181665e-03 1.319138727521136367e-01
2.360654379924272388e-03 1.319138727521136367e-01
3.147539173232363329e-03 1.319138727521136367e-01
3.934423966540453836e-03 1.319138727521136367e-01
4.721308759848544777e-03 1.319138727521136367e-01
5.508193553156635718e-03 1.319138727521136367e-01
6.295078346464726658e-03 1.319138727521136367e-01
7.081963139772817599e-03 1.319138727521136367e-01
7.868847933080907672e-03 1.319138727521136367e-01
8.655732726388998613e-03 1.319138727521136367e-01
9.442617519697089554e-03 1.319138727521136367e-01
1.022950231300518049e-02 1.319138727521136367e-01
1.101638710631327144e-02 1.319138727521136367e-01
1.180327189962136238e-02 1.319138727521136367e-01
1.259015669292945332e-02 1.319138727521136367e-01
1.337704148623754426e-02 1.319138727521136367e-01
1.416392627954563520e-02 1.319138727521136367e-01
1.495081107285372614e-02 1.319138727521136367e-01
1.573769586616181534e-02 1.319138727521136367e-01
1.652458065946990629e-02 1.319138727521136367e-01
1.731146545277799723e-02 1.319138727521136367e-01
1.809835024608608817e-02 1.319138727521136367e-01
1.888523503939417911e-02 1.319138727521136367e-01
1.967211983270227005e-02 1.319138727521136367e-01
2.045900462601036099e-02 1.319138727521136367e-01
2.124588941931845193e-02 1.319138727521136367e-01
2.203277421262654287e-02 1.319138727521136367e-01
2.281965900593463381e-02 1.319138727521136367e-01
2.360654379924272475e-02 1.319138727521136367e-01
2.439342859255081569e-02 1.319138727521136367e-01
2.518031338585890663e-02 1.319138727521136367e-01
2.596719817916699757e-02 1.319138727521136367e-01
2.675408297247508851e-02 1.319138727521136367e-01
2.754096776578317946e-02 1.319138727521136367e-01
2.832785255909127040e-02 1.319138727521136367e-01
2.911473735239936134e-02 1.319138727521136367e-01
2.990162214570745228e-02 1.319138727521136367e-01
3.068850693901554322e-02 1.319138727521136367e-01
3.147539173232363069e-02 1.319138727521136367e-01
3.226227652563172510e-02 1.319138727521136367e-01
3.304916131893981257e-02 1.319138727521136367e-01
3.383604611224790698e-02 1.319138727521136367e-01
3.462293090555599445e-02 1.319138727521136367e-01
3.540981569886408886e-02 1.319138727521136367e-01
3.619670049217217633e-02 1.319138727521136367e-01
3.698358528548027074e-02 1.319138727521136367e-01
3.777047007878835821e-02 1.319138727521136367e-01
3.855735487209645262e-02 1.319138727521136367e-01
3.934423966540454010e-02 1.319138727521136367e-01
4.013112445871263451e-02 1.319138727521136367e-01
4.091800925202072198e-02 1.319138727521136367e-01
4.170489404532881639e-02 1.319138727521136367e-01
4.249177883863690386e-02 1.319138727521136367e-01
4.327866363194499827e-02 1.319138727521136367e-01
4.406554842525308574e-02 1.319138727521136367e-01
4.485243321856118015e-02 1.319138727521136367e-01
4.563931801186926762e-02 1.319138727521136367e-01
4.642620280517736203e-02 1.319138727521136367e-01
4.721308759848544950e-02 1.319138727521136367e-01
4.799997239179354391e-02 1.319138727521136367e-01
4.878685718510163138e-02 1.319138727521136367e-01
4.957374197840972579e-02 1.319138727521136367e-01
5.036062677171781327e-02 1.319138727521136367e-01
5.114751156502590074e-02 1.319138727521136367e-01
5.193439635833399515e-02 1.319138727521136367e-01
5.272128115164208262e-02 1.319138727521136367e-01
5.350816594495017703e-02 1.319138727521136367e-01
5.429505073825826450e-02 1.319138727521136367e-01
5.508193553156635891e-02 1.319138727521136367e-01
5.586882032487444638e-02 1.319138727521136367e-01
5.665570511818254079e-02 1.319138727521136367e-01
5.744258991149062826e-02 1.319138727521136367e-01
5.822947470479872267e-02 1.319138727521136367e-01
5.901635949810681014e-02 1.319138727521136367e-01
5.980324429141490455e-02 1.319138727521136367e-01
6.059012908472299203e-02 1.319138727521136367e-01
6.137701387803108644e-02 1.319138727521136367e-01
6.216389867133917391e-02 1.319138727521136367e-01
6.295078346464726138e-02 1.319138727521136367e-01
6.373766825795536273e-02 1.319138727521136367e-01
6.452455305126345020e-02 1.319138727521136367e-01
6.531143784457153767e-02 1.319138727521136367e-01
6.609832263787962514e-02 1.319138727521136367e-01
6.688520743118772649e-02 1.319138727521136367e-01
6.767209222449581396e-02 1.319138727521136367e-01
6.845897701780390143e-02 1.319138727521136367e-01
6.924586181111198890e-02 1.319138727521136367e-01
7.003274660442009025e-02 1.319138727521136367e-01
7.081963139772817772e-02 1.319138727521136367e-01
7.160651619103626520e-02 1.319138727521136367e-01
7.239340098434435267e-02 1.319138727521136367e-01
7.318028577765245402e-02 1.319138727521136367e-01
7.396717057096054149e-02 1.319138727521136367e-01
7.475405536426862896e-02 1.319138727521136367e-01
7.554094015757671643e-02 1.319138727521136367e-01
7.632782495088480390e-02 1.319138727521136367e-01
7.711470974419290525e-02 1.319138727521136367e-01
7.790159453750099272e-02 1.319138727521136367e-01
7.868847933080908019e-02 1.319138727521136367e-01
7.947536412411716766e-02 1.319138727521136367e-01
8.026224891742526901e-02 1.319138727521136367e-01
8.104913371073335648e-02 1.319138727521136367e-01
8.183601850404144396e-02 1.319138727521136367e-01
8.262290329734953143e-02 1.319138727521136367e-01
8.340978809065763278e-02 1.319138727521136367e-01
8.419667288396572025e-02 1.319138727521136367e-01
8.498355767727380772e-02 1.319138727521136367e-01
8.577044247058189519e-02 1.319138727521136367e-01
8.655732726388999654e-02 1.319138727521136367e-01
8.734421205719808401e-02 1.319138727521136367e-01
8.813109685050617148e-02 1.319138727521136367e-01
8.891798164381425895e-02 1.319138727521136367e-01
8.970486643712236030e-02 1.319138727521136367e-01
9.049175123043044777e-02 1.319138727521136367e-01
9.127863602373853524e-02 1.319138727521136367e-01
9.206552081704662271e-02 1.319138727521136367e-01
9.285240561035472406e-02 1.319138727521136367e-01
9.363929040366281153e-02 1.319138727521136367e-01
9.442617519697089901e-02 1.319138727521136367e-01
9.521305999027898648e-02 1.319138727521136367e-01
9.599994478358708783e-02 1.319138727521136367e-01
9.678682957689517530e-02 1.319138727521136367e-01
9.757371437020326277e-02 1.319138727521136367e-01
9.836059916351135024e-02 1.319138727521136367e-01
9.914748395681945159e-02 1.319138727521136367e-01
9.993436875012753906e-02 1.319138727521136367e-01
1.007212535434356265e-01 1.319138727521136367e-01
1.015081383367437140e-01 1.319138727521136367e-01
1.022950231300518015e-01 1.319138727521136367e-01
1.030819079233599028e-01 1.319138727521136367e-01
1.038687927166679903e-01 1.319138727521136367e-01
1.046556775099760778e-01 1.319138727521136367e-01
1.054425623032841652e-01 1.319138727521136367e-01
1.062294470965922666e-01 1.319138727521136367e-01
1.070163318899003541e-01 1.319138727521136367e-01
1.078032166832084415e-01 1.319138727521136367e-01
1.085901014765165290e-01 1.319138727521136367e-01
1.093769862698246303e-01 1.319138727521136367e-01
1.101638710631327178e-01 1.319138727521136367e-01
1.109507558564408053e-01 1.319138727521136367e-01
1.117376406497488928e-01 1.319138727521136367e-01
1.125245254430569941e-01 1.319138727521136367e-01
1.133114102363650816e-01 1.319138727521136367e-01
1.140982950296731691e-01 1.319138727521136367e-01
1.148851798229812565e-01 1.319138727521136367e-01
1.156720646162893579e-01 1.319138727521136367e-01
1.164589494095974453e-01 1.319138727521136367e-01
1.172458342029055328e-01 1.319138727521136367e-01
1.180327189962136203e-01 1.319138727521136367e-01
1.188196037895217216e-01 1.319138727521136367e-01
1.196064885828298091e-01 1.319138727521136367e-01
1.203933733761378966e-01 1.319138727521136367e-01
1.211802581694459841e-01 1.319138727521136367e-01
1.219671429627540854e-01 1.319138727521136367e-01
1.227540277560621729e-01 1.319138727521136367e-01
1.235409125493702603e-01 1.319138727521136367e-01
1.243277973426783478e-01 1.319138727521136367e-01
1.251146821359864492e-01 1.319138727521136367e-01
1.259015669292945228e-01 1.319138727521136367e-01
1.266884517226026241e-01 1.319138727521136367e-01
1.274753365159107255e-01 1.319138727521136367e-01
1.282622213092187990e-01 1.319138727521136367e-01
1.290491061025269004e-01 1.319138727521136367e-01
1.298359908958349740e-01 1.319138727521136367e-01
1.306228756891430753e-01 1.319138727521136367e-01
1.314097604824511767e-01 1.319138727521136367e-01
1.321966452757592503e-01 1.319138727521136367e-01
1.329835300690673516e-01 1.319138727521136367e-01
1.337704148623754530e-01 1.319138727521136367e-01
1.345572996556835266e-01 1.319138727521136367e-01
1.353441844489916279e-01 1.319138727521136367e-01
1.361310692422997015e-01 1.319138727521136367e-01
1.369179540356078029e-01 1.319138727521136367e-01
1.377048388289159042e-01 1.319138727521136367e-01
1.384917236222239778e-01 1.319138727521136367e-01
1.392786084155320792e-01 1.319138727521136367e-01
1.400654932088401805e-01 1.319138727521136367e-01
1.408523780021482541e-01 1.319138727521136367e-01
1.416392627954563554e-01 1.319138727521136367e-01
1.424261475887644290e-01 1.319138727521136367e-01
1.432130323820725304e-01 1.319138727521136367e-01
1.439999171753806317e-01 1.319138727521136367e-01
1.447868019686887053e-01 1.319138727521136367e-01
1.455736867619968067e-01 1.319138727521136367e-01
1.463605715553049080e-01 1.319138727521136367e-01
1.471474563486129816e-01 1.319138727521136367e-01
1.479343411419210830e-01 1.319138727521136367e-01
1.487212259352291566e-01 1.319138727521136367e-01
1.495081107285372579e-01 1.319138727521136367e-01
1.502949955218453593e-01 1.319138727521136367e-01
1.510818803151534329e-01 1.319138727521136367e-01
1.518687651084615342e-01 1.319138727521136367e-01
1.526556499017696078e-01 1.319138727521136367e-01
1.534425346950777092e-01 1.319138727521136367e-01
1.542294194883858105e-01 1.319138727521136367e-01
1.550163042816938841e-01 1.319138727521136367e-01
1.558031890750019854e-01 1.319138727521136367e-01
1.565900738683100868e-01 1.319138727521136367e-01
1.573769586616181604e-01 1.319138727521136367e-01
1.581638434549262617e-01 1.319138727521136367e-01
1.589507282482343353e-01 1.319138727521136367e-01
1.597376130415424367e-01 1.319138727521136367e-01
1.605244978348505380e-01 1.319138727521136367e-01
1.613113826281586116e-01 1.319138727521136367e-01
1.620982674214667130e-01 1.319138727521136367e-01
1.628851522147748143e-01 1.319138727521136367e-01
1.636720370080828879e-01 1.319138727521136367e-01
1.644589218013909893e-01 1.319138727521136367e-01
1.652458065946990629e-01 1.319138727521136367e-01
1.660326913880071642e-01 1.319138727521136367e-01
1.668195761813152656e-01 1.319138727521136367e-01
1.676064609746233391e-01 1.319138727521136367e-01
1.683933457679314405e-01 1.319138727521136367e-01
1.691802305612395418e-01 1.319138727521136367e-01
1.699671153545476154e-01 1.319138727521136367e-01
1.707540001478557168e-01 1.319138727521136367e-01
1.715408849411637904e-01 1.319138727521136367e-01
1.723277697344718917e-01 1.319138727521136367e-01
1.731146545277799931e-01 1.319138727521136367e-01
1.739015393210880667e-01 1.319138727521136367e-01
1.746884241143961680e-01 1.319138727521136367e-01
1.754753089077042694e-01 1.319138727521136367e-01
1.762621937010123430e-01 1.319138727521136367e-01
1.770490784943204443e-01 1.319138727521136367e-01
1.778359632876285179e-01 1.319138727521136367e-01
1.786228480809366193e-01 1.319138727521136367e-01
1.794097328742447206e-01 1.319138727521136367e-01
1.801966176675527942e-01 1.319138727521136367e-01
1.809835024608608955e-01 1.319138727521136367e-01
1.817703872541689691e-01 1.319138727521136367e-01
1.825572720474770705e-01 1.319138727521136367e-01
1.833441568407851718e-01 1.319138727521136367e-01
1.841310416340932454e-01 1.319138727521136367e-01
1.849179264274013468e-01 1.319138727521136367e-01
1.857048112207094481e-01 1.319138727521136367e-01
1.864916960140175217e-01 1.319138727521136367e-01
1.872785808073256231e-01 1.319138727521136367e-01
1.880654656006336967e-01 1.319138727521136367e-01
1.888523503939417980e-01 1.319138727521136367e-01
1.896392351872498994e-01 1.319138727521136367e-01
1.904261199805579730e-01 1.319138727521136367e-01
1.912130047738660743e-01 1.319138727521136367e-01
1.919998895671741757e-01 1.319138727521136367e-01
1.927867743604822492e-01 1.319138727521136367e-01
1.935736591537903506e-01 1.319138727521136367e-01
1.943605439470984242e-01 1.319138727521136367e-01
1.951474287404065255e-01 1.319138727521136367e-01
1.959343135337146269e-01 1.319138727521136367e-01
1.967211983270227005e-01 1.319138727521136367e-01
1.975080831203308018e-01 1.319138727521136367e-01
1.982949679136389032e-01 1.319138727521136367e-01
1.990818527069469768e-01 1.319138727521136367e-01
1.998687375002550781e-01 1.319138727521136367e-01
2.006556222935631517e-01 1.319138727521136367e-01
2.014425070868712531e-01 1.319138727521136367e-01
2.022293918801793544e-01 1.319138727521136367e-01
2.030162766734874280e-01 1.319138727521136367e-01
2.038031614667955294e-01 1.319138727521136367e-01
2.045900462601036029e-01 1.319138727521136367e-01
2.053769310534117043e-01 1.319138727521136367e-01
2.061638158467198056e-01 1.319138727521136367e-01
2.069507006400278792e-01 1.319138727521136367e-01
2.077375854333359806e-01 1.319138727521136367e-01
2.085244702266440819e-01 1.319138727521136367e-01
2.093113550199521555e-01 1.319138727521136367e-01
2.100982398132602569e-01 1.319138727521136367e-01
2.108851246065683305e-01 1.319138727521136367e-01
2.116720093998764318e-01 1.319138727521136367e-01
2.124588941931845332e-01 1.319138727521136367e-01
2.132457789864926068e-01 1.319138727521136367e-01
2.140326637798007081e-01 1.319138727521136367e-01
2.148195485731088095e-01 1.319138727521136367e-01
2.156064333664168831e-01 1.319138727521136367e-01
2.163933181597249844e-01 1.319138727521136367e-01
2.171802029530330580e-01 1.319138727521136367e-01
2.179670877463411593e-01 1.319138727521136367e-01
2.187539725396492607e-01 1.319138727521136367e-01
2.195408573329573343e-01 1.319138727521136367e-01
2.203277421262654356e-01 1.319138727521136367e-01
2.211146269195735370e-01 1.319138727521136367e-01
2.219015117128816106e-01 1.319138727521136367e-01
2.226883965061897119e-01 1.319138727521136367e-01
2.234752812994977855e-01 1.319138727521136367e-01
2.242621660928058869e-01 1.319138727521136367e-01
2.250490508861139882e-01 1.319138727521136367e-01
2.258359356794220618e-01 1.319138727521136367e-01
2.266228204727301632e-01 1.319138727521136367e-01
2.274097052660382368e-01 1.319138727521136367e-01
2.281965900593463381e-01 1.319138727521136367e-01
2.289834748526544395e-01 1.319138727521136367e-01
2.297703596459625131e-01 1.319138727521136367e-01
2.305572444392706144e-01 1.319138727521136367e-01
2.313441292325787157e-01 1.319138727521136367e-01
2.321310140258867893e-01 1.319138727521136367e-01
2.329178988191948907e-01 1.319138727521136367e-01
2.337047836125029643e-01 1.319138727521136367e-01
2.344916684058110656e-01 1.319138727521136367e-01
2.352785531991191670e-01 1.319138727521136367e-01
2.360654379924272406e-01 1.319138727521136367e-01
2.368523227857353419e-01 1.319138727521136367e-01
2.376392075790434433e-01 1.319138727521136367e-01
2.384260923723515169e-01 1.319138727521136367e-01
2.392129771656596182e-01 1.319138727521136367e-01
2.399998619589676918e-01 1.319138727521136367e-01
2.407867467522757932e-01 1.319138727521136367e-01
2.415736315455838945e-01 1.319138727521136367e-01
2.423605163388919681e-01 1.319138727521136367e-01
2.431474011322000695e-01 1.319138727521136367e-01
2.439342859255081708e-01 1.319138727521136367e-01
2.447211707188162444e-01 1.319138727521136367e-01
2.455080555121243457e-01 1.319138727521136367e-01
2.462949403054324193e-01 1.319138727521136367e-01
2.470818250987405207e-01 1.319138727521136367e-01
2.478687098920486220e-01 1.319138727521136367e-01
2.486555946853566956e-01 1.319138727521136367e-01
2.494424794786647970e-01 1.319138727521136367e-01
2.502293642719728983e-01 1.319138727521136367e-01
2.510162490652809719e-01 1.319138727521136367e-01
2.518031338585890455e-01 1.319138727521136367e-01
2.525900186518971746e-01 1.319138727521138588e-01
2.533769034452052482e-01 1.319138727521143029e-01
2.541637882385133218e-01 1.319138727521149690e-01
2.549506730318214509e-01 1.319138727521178556e-01
2.557375578251295245e-01 1.319138727521222965e-01
2.565244426184375981e-01 1.319138727521365073e-01
2.573113274117457272e-01 1.319138727521584897e-01
2.580982122050538008e-01 1.319138727522246590e-01
2.588850969983618744e-01 1.319138727523256893e-01
2.596719817916699480e-01 1.319138727526059096e-01
2.604588665849780771e-01 1.319138727530300148e-01
2.612457513782861507e-01 1.319138727541184775e-01
2.620326361715942243e-01 1.319138727557545021e-01
2.628195209649023534e-01 1.319138727596347316e-01
2.636064057582104270e-01 1.319138727654400878e-01
2.643932905515185006e-01 1.319138727781725695e-01
2.651801753448266297e-01 1.319138727971882474e-01
2.659670601381347033e-01 1.319138728358242307e-01
2.667539449314427769e-01 1.319138728935693727e-01
2.675408297247509060e-01 1.319138730026720996e-01
2.683277145180589796e-01 1.319138731661948505e-01
2.691145993113670531e-01 1.319138734553453318e-01
2.699014841046751823e-01 1.319138738904164221e-01
2.706883688979832558e-01 1.319138746171983900e-01
2.714752536912913294e-01 1.319138757146398611e-01
2.722621384845994030e-01 1.319138774671650971e-01
2.730490232779075321e-01 1.319138801174966069e-01
2.738359080712156057e-01 1.319138842149247814e-01
2.746227928645236793e-01 1.319138903997754131e-01
2.754096776578318084e-01 1.319138997593349849e-01
2.761965624511398820e-01 1.319139138065181793e-01
2.769834472444479556e-01 1.319139347693210063e-01
2.777703320377560847e-01 1.319139659528605346e-01
2.785572168310641583e-01 1.319140119994466342e-01
2.793441016243722319e-01 1.319140797655868891e-01
2.801309864176803610e-01 1.319141788374897928e-01
2.809178712109884346e-01 1.319143229926611482e-01
2.817047560042965082e-01 1.319145315383283279e-01
2.824916407976045818e-01 1.319148315651867964e-01
2.832785255909127109e-01 1.319152608464499998e-01
2.840654103842207845e-01 1.319158715826653783e-01
2.848522951775288581e-01 1.319167357019146447e-01
2.856391799708369872e-01 1.319179515074764275e-01
2.864260647641450608e-01 1.319196525982195833e-01
2.872129495574531344e-01 1.319220194779442412e-01
2.879998343507612635e-01 1.319252942661246486e-01
2.887867191440693371e-01 1.319297999220567785e-01
2.895736039373774107e-01 1.319359642451032322e-01
2.903604887306855398e-01 1.319443503729424982e-01
2.911473735239936134e-01 1.319556947279068027e-01
2.919342583173016870e-01 1.319709540091658084e-01
2.927211431106098161e-01 1.319913628319624443e-01
2.935080279039178897e-01 1.320185039896142332e-01
2.942949126972259632e-01 1.320543923937946840e-01
2.950817974905340368e-01 1.321015763738699889e-01
2.958686822838421659e-01 1.321632553433438328e-01
2.966555670771502395e-01 1.322434198455093579e-01
2.974424518704583131e-01 1.323470088549347778e-01
2.982293366637664422e-01 1.324800956590761469e-01
2.990162214570745158e-01 1.326500882112242596e-01
2.998031062503825894e-01 1.328659626053845244e-01
3.005899910436907185e-01 1.331385039227750422e-01
3.013768758369987921e-01 1.334805818417512668e-01
3.021637606303068657e-01 1.339074216152933428e-01
3.029506454236149948e-01 1.344369025208651536e-01
3.037375302169230684e-01 1.350898400765974117e-01
3.045244150102311420e-01 1.358902641487027552e-01
3.053112998035392156e-01 1.368656857799079862e-01
3.060981845968473447e-01 1.380473045615524530e-01
3.068850693901554183e-01 1.394701839411582878e-01
3.076719541834634919e-01 1.411733665902792367e-01
3.084588389767716210e-01 1.431998479794627244e-01
3.092457237700796946e-01 1.455965228836602066e-01
3.100326085633877682e-01 1.484139449788324239e-01
3.108194933566958973e-01 1.517059633365460680e-01
3.116063781500039709e-01 1.555291919896732988e-01
3.123932629433120445e-01 1.599423538180297921e-01
3.131801477366201736e-01 1.650053730738956226e-01
3.139670325299282472e-01 1.707783596293313000e-01
3.147539173232363208e-01 1.773203947134496250e-01
3.155408021165444499e-01 1.846880768908076842e-01
3.163276869098525235e-01 1.929341892082638843e-01
3.171145717031605971e-01 2.021057037823454916e-01
3.179014564964686707e-01 2.122425649584669394e-01
3.186883412897767998e-01 2.233753175026336191e-01
3.194752260830848734e-01 2.355239671022351100e-01
3.202621108763929469e-01 2.486956085577483044e-01
3.210489956697010761e-01 2.628832708152164521e-01
3.218358804630091496e-01 2.780644320080107867e-01
3.226227652563172232e-01 2.941989363904113919e-01
3.234096500496253523e-01 3.112291799573867479e-01
3.241965348429334259e-01 3.290781717491149116e-01
3.249834196362414995e-01 3.476490182404845530e-01
3.257703044295496286e-01 3.668254389515930303e-01
3.265571892228577022e-01 3.864711064663084450e-01
3.273440740161657758e-01 4.064299351741480493e-01
3.281309588094738494e-01 4.265266175051991571e-01
3.289178436027819785e-01 4.465681913860377605e-01
3.297047283960900521e-01 4.663434627559686074e-01
3.304916131893981257e-01 4.856268829579839519e-01
3.312784979827062548e-01 5.041770637805238486e-01
3.320653827760143284e-01 5.217416448205935975e-01
3.328522675693224020e-01 5.380560560185645436e-01
3.336391523626305311e-01 5.528488800073720899e-01
3.344260371559386047e-01 5.658429245823535236e-01
3.352129219492466783e-01 5.767578626270082331e-01
3.359998067425548074e-01 5.853143569969954108e-01
3.367866915358628810e-01 5.912376904180511872e-01
3.375735763291709546e-01 5.942627153467876511e-01
3.383604611224790837e-01 5.941379788546896634e-01
3.391473459157871573e-01 5.906298475121134484e-01
3.399342307090952309e-01 5.835243223372450494e-01
3.407211155024033045e-01 5.726435383320933603e-01
3.415080002957114336e-01 5.578437845381694071e-01
3.422948850890195072e-01 5.390260637395225540e-01
3.430817698823275808e-01 5.161395573652980406e-01
3.438686546756357099e-01 4.891875653226942511e-01
3.446555394689437835e-01 4.582410356164758891e-01
3.454424242622518570e-01 4.234289946180989084e-01
3.462293090555599862e-01 3.849540566295424071e-01
3.470161938488680597e-01 3.430937438461887368e-01
3.478030786421761333e-01 2.981942165331454841e-01
3.485899634354842624e-01 2.506732429417253272e-01
3.493768482287923360e-01 2.010168994022465405e-01
3.501637330221004096e-01 1.497742904725161139e-01
3.509506178154085387e-01 9.754533928119601960e-02
3.517375026087166123e-01 4.497286775052677932e-02
3.525243874020246859e-01 -7.266313153108328038e-03
3.533112721953327595e-01 -5.848813266748909001e-02
3.540981569886408886e-01 -1.079959803830417009e-01
3.548850417819489622e-01 -1.551173352127405147e-01
3.556719265752570358e-01 -1.992192749559400511e-01
3.564588113685651649e-01 -2.397045164097372227e-01
3.572456961618732385e-01 -2.760516742367912224e-01
3.580325809551813121e-01 -3.078179008910821857e-01
3.588194657484894412e-01 -3.346553861539028896e-01
3.596063505417975148e-01 -3.563159770039366903e-01
3.603932353351055884e-01 -3.726658622042902103e-01
3.611801201284137175e-01 -3.836855723024928944e-01
3.619670049217217911e-01 -3.894640397975407398e-01
3.627538897150298647e-01 -3.902025590285337353e-01
3.635407745083379383e-01 -3.862060414206001102e-01
3.643276593016460674e-01 -3.778711358189829062e-01
3.651145440949541410e-01 -3.656789686932029326e-01
3.659014288882622146e-01 -3.501769946474679873e-01
3.666883136815703437e-01 -3.319615894102018183e-01
3.674751984748784173e-01 -3.116515680787766973e-01
3.682620832681864909e-01 -2.898802653422378750e-01
3.690489680614946200e-01 -2.672823771013499439e-01
3.698358528548026936e-01 -2.444552278078560015e-01
3.706227376481107672e-01 -2.219645040532347569e-01
3.714096224414188963e-01 -2.003204127391927658e-01
3.721965072347269698e-01 -1.799696272416578813e-01
3.729833920280350434e-01 -1.612794581684376949e-01
3.737702768213431725e-01 -1.445478149540739832e-01
3.745571616146512461e-01 -1.299808541446793031e-01
3.753440464079593197e-01 -1.177097418952836039e-01
3.761309312012673933e-01 -1.077795270952492945e-01
3.769178159945755224e-01 -1.001658987095135345e-01
3.777047007878835960e-01 -9.477502593933306851e-02
3.784915855811916696e-01 -9.144966820670585861e-02
3.792784703744997987e-01 -8.999626533002824669e-02
3.800653551678078723e-01 -9.017813146549791270e-02
3.808522399611159459e-01 -9.172306551808995234e-02
3.816391247544240750e-01 -9.435036913174410511e-02
3.824260095477321486e-01 -9.777468283148205153e-02
3.832128943410402222e-01 -1.017025623696897751e-01
3.839997791343483513e-01 -1.058653953004207171e-01
3.847866639276564249e-01 -1.099977040895667724e-01
3.855735487209644985e-01 -1.138761675174789767e-01
3.863604335142725721e-01 -1.172875290814634486e-01
3.871473183075807012e-01 -1.200617610631244947e-01
3.879342031008887748e-01 -1.220590298949317809e-01
3.887210878941968484e-01 -1.231659837646216227e-01
3.895079726875049775e-01 -1.233049098576725067e-01
3.902948574808130511e-01 -1.224281245150683484e-01
3.910817422741211247e-01 -1.205288629270523382e-01
3.918686270674292538e-01 -1.176198297363382217e-01
3.926555118607373274e-01 -1.137358389638687406e-01
3.934423966540454010e-01 -1.089361239438544349e-01
3.942292814473535301e-01 -1.032995524583359970e-01
3.950161662406616037e-01 -9.690367232647500995e-02
3.958030510339696773e-01 -8.985441056933873849e-02
3.965899358272778064e-01 -8.226132410591280308e-02
3.973768206205858800e-01 -7.422572008718686387e-02
3.981637054138939535e-01 -6.586408523726294817e-02
3.989505902072020271e-01 -5.728861640088522833e-02
3.997374750005101562e-01 -4.859765081256506303e-02
4.005243597938182298e-01 -3.988721577177445354e-02
4.013112445871263034e-01 -3.125696847590409000e-02
4.020981293804344325e-01 -2.277125711532179686e-02
4.028850141737425061e-01 -1.450465959271063365e-02
4.036718989670505797e-01 -6.515914256201349453e-03
4.044587837603587088e-01 1.155050017105807569e-03
4.052456685536667824e-01 8.476224127387022023e-03
4.060325533469748560e-01 1.542813862217151666e-02
4.068194381402829851e-01 2.200518365922254915e-02
4.076063229335910587e-01 2.820405933134151333e-02
4.083932077268991323e-01 3.403631531372264263e-02
4.091800925202072059e-01 3.952043108667679938e-02
4.099669773135153350e-01 4.468313589851069523e-02
4.107538621068234086e-01 4.955313894185020551e-02
4.115407469001314822e-01 5.415947940004062211e-02
4.123276316934396113e-01 5.853548633578542493e-02
4.131145164867476849e-01 6.271481880250817653e-02
4.139014012800557585e-01 6.674202554738650761e-02
4.146882860733638876e-01 7.063360610641233883e-02
4.154751708666719612e-01 7.442420950516814848e-02
4.162620556599800348e-01 7.813693509404284754e-02
4.170489404532881639e-01 8.178960237190735505e-02
4.178358252465962375e-01 8.540498069843027729e-02
4.186227100399043111e-01 8.899593971168551221e-02
4.194095948332124402e-01 9.257798897550495454e-02
4.201964796265205138e-01 9.615970824860475830e-02
4.209833644198285874e-01 9.974934729898055075e-02
4.217702492131366609e-01 1.033610957275854503e-01
4.225571340064447901e-01 1.069995734044968394e-01
4.233440187997528636e-01 1.106773199770689775e-01
4.241309035930609372e-01 1.144025852132972698e-01
4.249177883863690663e-01 1.181879087605359757e-01
4.257046731796771399e-01 1.220521000898151520e-01
4.264915579729852135e-01 1.260185885422437924e-01
4.272784427662933426e-01 1.301117934310891400e-01
4.280653275596014162e-01 1.343485442830634202e-01
4.288522123529094898e-01 1.387578802815117029e-01
4.296390971462176189e-01 1.433744504520171326e-01
4.304259819395256925e-01 1.482276239686448616e-01
4.312128667328337661e-01 1.533576596992149987e-01
4.319997515261418397e-01 1.587869970126765118e-01
4.327866363194499688e-01 1.645651345170044966e-01
4.335735211127580424e-01 1.707207814048250505e-01
4.343604059060661160e-01 1.772753870729271153e-01
4.351472906993742451e-01 1.842715203241696020e-01
4.359341754926823187e-01 1.917279906295834557e-01
4.367210602859903923e-01 1.996655874045181189e-01
4.375079450792985214e-01 2.081070800086424200e-01
4.382948298726065950e-01 2.170626981542711498e-01
4.390817146659146686e-01 2.265423415629994608e-01
4.398685994592227977e-01 2.365380904575511423e-01
4.406554842525308713e-01 2.470463149400081715e-01
4.414423690458389449e-01 2.580531554001372907e-01
4.422292538391470740e-01 2.695269327288343231e-01
4.430161386324551476e-01 2.814366277984348130e-01
4.438030234257632212e-01 2.937525414441533034e-01
4.445899082190712948e-01 3.064189052343375685e-01
4.453767930123794239e-01 3.193743408950981966e-01
4.461636778056874975e-01 3.325564801803861936e-01
4.469505625989955711e-01 3.459006449091135416e-01
4.477374473923037002e-01 3.593167476147651751e-01
4.485243321856117737e-01 3.727219606266622964e-01
4.493112169789198473e-01 3.860347762370053282e-01
4.500981017722279764e-01 3.991545472762443314e-01
4.508849865655360500e-01 4.119892063335448551e-01
4.516718713588441236e-01 4.244463560073532538e-01
4.524587561521522527e-01 4.364329389146752725e-01
4.532456409454603263e-01 4.478591975797161506e-01
4.540325257387683999e-01 4.586333945823608538e-01
4.548194105320764735e-01 4.686812820106467381e-01
4.556062953253846026e-01 4.779276219804509118e-01
4.563931801186926762e-01 4.862918967561333794e-01
4.571800649120007498e-01 4.937292275997968716e-01
4.579669497053088789e-01 5.001812061540298338e-01
4.587538344986169525e-01 5.055904140335814034e-01
4.595407192919250261e-01 5.099228621943079354e-01
4.603276040852331552e-01 5.131435716199070907e-01
4.611144888785412288e-01 5.152208632012746925e-01
4.619013736718493024e-01 5.161263577365045041e-01
4.626882584651574315e-01 5.158283761164925707e-01
4.634751432584655051e-01 5.143024990279709829e-01
4.642620280517735787e-01 5.115287620323898388e-01
4.650489128450817078e-01 5.074751560299246567e-01
4.658357976383897814e-01 5.021144567861890451e-01
4.666226824316978550e-01 4.954255448951137009e-01
4.674095672250059286e-01 4.873708014146371781e-01
4.681964520183140577e-01 4.779370267159661623e-01
4.689833368116221313e-01 4.670928716807161152e-01
4.697702216049302049e-01 4.548271166244126640e-01