0.000000000000000000e+00 -5.539479965974658526e-02
7.868847933080908323e-04 1.319138727521136367e-01
1.573769586616181665e-03 1.319138727521136367e-01
2.360654379924272388e-03 1.319138727521136367e-01
3.147539173232363329e-03 1.319138727521136367e-01
3.934423966540453836e-03 1.319138727521136367e-01
4.721308759848544777e-03 1.319138727521136367e-01
5.508193553156635718e-03 1.319138727521136367e-01
6.295078346464726658e-03 1.319138727521136367e-01
7.081963139772817599e-03 1.319138727521136367e-01
7.868847933080907672e-03 1.319138727521136367e-01
8.655732726388998613e-03 1.319138727521136367e-01
9.442617519697089554e-03 1.319138727521136367e-01
1.022950231300518049e-02 1.319138727521136367e-01
1.101638710631327144e-02 1.319138727521136367e-01
1.180327189962136238e-02 1.319138727521136367e-01
1.259015669292945332e-02 1.319138727521136367e-01
1.337704148623754426e-02 1.319138727521136367e-01
1.416392627954563520e-02 1.319138727521136367e-01
1.495081107285372614e-02 1.319138727521136367e-01
1.573769586616181534e-02 1.319138727521136367e-01
1.652458065946990629e-02 1.319138727521136367e-01
1.731146545277799723e-02 1.319138727521136367e-01
1.809835024608608817e-02 1.319138727521136367e-01
1.888523503939417911e-02 1.319138727521136367e-01
1.967211983270227005e-02 1.319138727521136367e-01
2.045900462601036099e-02 1.319138727521136367e-01
2.124588941931845193e-02 1.319138727521136367e-01
2.203277421262654287e-02 1.319138727521136367e-01
2.281965900593463381e-02 1.319138727521136367e-01
2.360654379924272475e-02 1.319138727521136367e-01
2.439342859255081569e-02 1.319138727521136367e-01
2.518031338585890663e-02 1.319138727521136367e-01
2.596719817916699757e-02 1.319138727521136367e-01
2.675408297247508851e-02 1.319138727521136367e-01
2.754096776578317946e-02 1.319138727521136367e-01
2.832785255909127040e-02 1.319138727521136367e-01
2.911473735239936134e-02 1.319138727521136367e-01
2.990162214570745228e-02 1.319138727521136367e-01
3.068850693901554322e-02 1.319138727521136367e-01
3.147539173232363069e-02 1.319138727521136367e-01
3.226227652563172510e-02 1.319138727521136367e-01
3.304916131893981257e-02 1.319138727521136367e-01
3.383604611224790698e-02 1.319138727521136367e-01
3.462293090555599445e-02 1.319138727521136367e-01
3.540981569886408886e-02 1.319138727521136367e-01
3.619670049217217633e-02 1.319138727521136367e-01
3.698358528548027074e-02 1.319138727521136367e-01
3.777047007878835821e-02 1.319138727521136367e-01
3.855735487209645262e-02 1.319138727521136367e-01
3.934423966540454010e-02 1.319138727521136367e-01
4.013112445871263451e-02 1.319138727521136367e-01
4.091800925202072198e-02 1.319138727521136367e-01
4.170489404532881639e-02 1.319138727521136367e-01
4.249177883863690386e-02 1.319138727521136367e-01
4.327866363194499827e-02 1.319138727521136367e-01
4.406554842525308574e-02 1.319138727521136367e-01
4.485243321856118015e-02 1.319138727521136367e-01
4.563931801186926762e-02 1.319138727521136367e-01
4.642620280517736203e-02 1.319138727521136367e-01
4.721308759848544950e-02 1.319138727521136367e-01
4.799997239179354391e-02 1.319138727521136367e-01
4.878685718510163138e-02 1.319138727521136367e-01
4.957374197840972579e-02 1.319138727521136367e-01
5.036062677171781327e-02 1.319138727521136367e-01
5.114751156502590074e-02 1.319138727521136367e-01
5.193439635833399515e-02 1.319138727521136367e-01
5.272128115164208262e-02 1.319138727521136367e-01
5.350816594495017703e-02 1.319138727521136367e-01
5.429505073825826450e-02 1.319138727521136367e-01
5.508193553156635891e-02 1.319138727521136367e-01
5.586882032487444638e-02 1.319138727521136367e-01
5.665570511818254079e-02 1.319138727521136367e-01
5.744258991149062826e-02 1.319138727521136367e-01
5.822947470479872267e-02 1.319138727521136367e-01
5.901635949810681014e-02 1.319138727521136367e-01
5.980324429141490455e-02 1.319138727521136367e-01
6.059012908472299203e-02 1.319138727521136367e-01
6.137701387803108644e-02 1.319138727521136367e-01
6.216389867133917391e-02 1.319138727521136367e-01
6.295078346464726138e-02 1.319138727521136367e-01
6.373766825795536273e-02 1.319138727521136367e-01
6.452455305126345020e-02 1.319138727521136367e-01
6.531143784457153767e-02 1.319138727521136367e-01
6.609832263787962514e-02 1.319138727521136367e-01
6.688520743118772649e-02 1.319138727521136367e-01
6.767209222449581396e-02 1.319138727521136367e-01
6.845897701780390143e-02 1.319138727521136367e-01
6.924586181111198890e-02 1.319138727521136367e-01
7.003274660442009025e-02 1.319138727521136367e-01
7.081963139772817772e-02 1.319138727521136367e-01
7.160651619103626520e-02 1.319138727521136367e-01
7.239340098434435267e-02 1.319138727521136367e-01
7.318028577765245402e-02 1.319138727521136367e-01
7.396717057096054149e-02 1.319138727521136367e-01
7.475405536426862896e-02 1.319138727521136367e-01
7.554094015757671643e-02 1.319138727521136367e-01
7.632782495088480390e-02 1.319138727521136367e-01
7.711470974419290525e-02 1.319138727521136367e-01
7.790159453750099272e-02 1.319138727521136367e-01
7.868847933080908019e-02 1.319138727521136367e-01
7.947536412411716766e-02 1.319138727521136367e-01
8.026224891742526901e-02 1.319138727521136367e-01
8.104913371073335648e-02 1.319138727521136367e-01
8.183601850404144396e-02 1.319138727521136367e-01
8.262290329734953143e-02 1.319138727521136367e-01
8.340978809065763278e-02 1.319138727521136367e-01
8.419667288396572025e-02 1.319138727521136367e-01
8.498355767727380772e-02 1.319138727521136367e-01
8.577044247058189519e-02 1.319138727521136367e-01
8.655732726388999654e-02 1.319138727521136367e-01
8.734421205719808401e-02 1.319138727521136367e-01
8.813109685050617148e-02 1.319138727521136367e-01
8.891798164381425895e-02 1.319138727521136367e-01
8.970486643712236030e-02 1.319138727521136367e-01
9.049175123043044777e-02 1.319138727521136367e-01
9.127863602373853524e-02 1.319138727521136367e-01
9.206552081704662271e-02 1.319138727521136367e-01
9.285240561035472406e-02 1.319138727521136367e-01
9.363929040366281153e-02 1.319138727521136367e-01
9.442617519697089901e-02 1.319138727521136367e-01
9.521305999027898648e-02 1.319138727521136367e-01
9.599994478358708783e-02 1.319138727521136367e-01
9.678682957689517530e-02 1.319138727521136367e-01
9.757371437020326277e-02 1.319138727521136367e-01
9.836059916351135024e-02 1.319138727521136367e-01
9.914748395681945159e-02 1.319138727521136367e-01
9.993436875012753906e-02 1.319138727521136367e-01
1.007212535434356265e-01 1.319138727521136367e-01
1.015081383367437140e-01 1.319138727521136367e-01
1.022950231300518015e-01 1.319138727521136367e-01
1.030819079233599028e-01 1.319138727521136367e-01
1.038687927166679903e-01 1.319138727521136367e-01
1.046556775099760778e-01 1.319138727521136367e-01
1.054425623032841652e-01 1.319138727521136367e-01
1.062294470965922666e-01 1.319138727521136367e-01
1.070163318899003541e-01 1.319138727521136367e-01
1.078032166832084415e-01 1.319138727521136367e-01
1.085901014765165290e-01 1.319138727521136367e-01
1.093769862698246303e-01 1.319138727521136367e-01
1.101638710631327178e-01 1.319138727521136367e-01
1.109507558564408053e-01 1.319138727521136367e-01
1.117376406497488928e-01 1.319138727521136367e-01
1.125245254430569941e-01 1.319138727521136367e-01
1.133114102363650816e-01 1.319138727521136367e-01
1.140982950296731691e-01 1.319138727521136367e-01
1.148851798229812565e-01 1.319138727521136367e-01
1.156720646162893579e-01 1.319138727521136367e-01
1.164589494095974453e-01 1.319138727521136367e-01
1.172458342029055328e-01 1.319138727521136367e-01
1.180327189962136203e-01 1.319138727521136367e-01
1.188196037895217216e-01 1.319138727521136367e-01
1.196064885828298091e-01 1.319138727521136367e-01
1.203933733761378966e-01 1.319138727521136367e-01
1.211802581694459841e-01 1.319138727521136367e-01
1.219671429627540854e-01 1.319138727521136367e-01
1.227540277560621729e-01 1.319138727521136367e-01
1.235409125493702603e-01 1.319138727521136367e-01
1.243277973426783478e-01 1.319138727521136367e-01
1.251146821359864492e-01 1.319138727521136367e-01
1.259015669292945228e-01 1.319138727521136367e-01
1.266884517226026241e-01 1.319138727521136367e-01
1.274753365159107255e-01 1.319138727521136367e-01
1.282622213092187990e-01 1.319138727521136367e-01
1.290491061025269004e-01 1.319138727521136367e-01
1.298359908958349740e-01 1.319138727521136367e-01
1.306228756891430753e-01 1.319138727521136367e-01
1.314097604824511767e-01 1.319138727521136367e-01
1.321966452757592503e-01 1.319138727521136367e-01
1.329835300690673516e-01 1.319138727521136367e-01
1.337704148623754530e-01 1.319138727521136367e-01
1.345572996556835266e-01 1.319138727521136367e-01
1.353441844489916279e-01 1.319138727521136367e-01
1.361310692422997015e-01 1.319138727521136367e-01
1.369179540356078029e-01 1.319138727521136367e-01
1.377048388289159042e-01 1.319138727521136367e-01
1.384917236222239778e-01 1.319138727521136367e-01
1.392786084155320792e-01 1.319138727521136367e-01
1.400654932088401805e-01 1.319138727521136367e-01
1.408523780021482541e-01 1.319138727521136367e-01
1.416392627954563554e-01 1.319138727521136367e-01
1.424261475887644290e-01 1.319138727521136367e-01
1.432130323820725304e-01 1.319138727521136367e-01
1.439999171753806317e-01 1.319138727521136367e-01
1.447868019686887053e-01 1.319138727521136367e-01
1.455736867619968067e-01 1.319138727521136367e-01
1.463605715553049080e-01 1.319138727521136367e-01
1.471474563486129816e-01 1.319138727521136367e-01
1.479343411419210830e-01 1.319138727521136367e-01
1.487212259352291566e-01 1.319138727521136367e-01
1.495081107285372579e-01 1.319138727521136367e-01
1.502949955218453593e-01 1.319138727521136367e-01
1.510818803151534329e-01 1.319138727521136367e-01
1.518687651084615342e-01 1.319138727521136367e-01
1.526556499017696078e-01 1.319138727521136367e-01
1.534425346950777092e-01 1.319138727521136367e-01
1.542294194883858105e-01 1.319138727521136367e-01
1.550163042816938841e-01 1.319138727521136367e-01
1.558031890750019854e-01 1.319138727521136367e-01
1.565900738683100868e-01 1.319138727521136367e-01
1.573769586616181604e-01 1.319138727521136367e-01
1.581638434549262617e-01 1.319138727521136367e-01
1.589507282482343353e-01 1.319138727521136367e-01
1.597376130415424367e-01 1.319138727521136367e-01
1.605244978348505380e-01 1.319138727521136367e-01
1.613113826281586116e-01 1.319138727521136367e-01
1.620982674214667130e-01 1.319138727521136367e-01
1.628851522147748143e-01 1.319138727521136367e-01
1.636720370080828879e-01 1.319138727521136367e-01
1.644589218013909893e-01 1.319138727521136367e-01
1.652458065946990629e-01 1.319138727521136367e-01
1.660326913880071642e-01 1.319138727521136367e-01
1.668195761813152656e-01 1.319138727521136367e-01
1.676064609746233391e-01 1.319138727521136367e-01
1.683933457679314405e-01 1.319138727521136367e-01
1.691802305612395418e-01 1.319138727521136367e-01
1.699671153545476154e-01 1.319138727521136367e-01
1.707540001478557168e-01 1.319138727521136367e-01
1.715408849411637904e-01 1.319138727521136367e-01
1.723277697344718917e-01 1.319138727521136367e-01
1.731146545277799931e-01 1.319138727521136367e-01
1.739015393210880667e-01 1.319138727521136367e-01
1.746884241143961680e-01 1.319138727521136367e-01
1.754753089077042694e-01 1.319138727521136367e-01
1.762621937010123430e-01 1.319138727521136367e-01
1.770490784943204443e-01 1.319138727521136367e-01
1.778359632876285179e-01 1.319138727521136367e-01
1.786228480809366193e-01 1.319138727521136367e-01
1.794097328742447206e-01 1.319138727521136367e-01
1.801966176675527942e-01 1.319138727521136367e-01
1.809835024608608955e-01 1.319138727521136367e-01
1.817703872541689691e-01 1.319138727521136367e-01
1.825572720474770705e-01 1.319138727521136367e-01
1.833441568407851718e-01 1.319138727521136367e-01
1.841310416340932454e-01 1.319138727521136367e-01
1.849179264274013468e-01 1.319138727521136367e-01
1.857048112207094481e-01 1.319138727521136367e-01
1.864916960140175217e-01 1.319138727521136367e-01
1.872785808073256231e-01 1.319138727521136367e-01
1.880654656006336967e-01 1.319138727521136367e-01
1.888523503939417980e-01 1.319138727521136367e-01
1.896392351872498994e-01 1.319138727521136367e-01
1.904261199805579730e-01 1.319138727521136367e-01
1.912130047738660743e-01 1.319138727521136367e-01
1.919998895671741757e-01 1.319138727521136367e-01
1.927867743604822492e-01 1.319138727521136367e-01
1.935736591537903506e-01 1.319138727521136367e-01
1.943605439470984242e-01 1.319138727521136367e-01
1.951474287404065255e-01 1.319138727521136367e-01
1.959343135337146269e-01 1.319138727521136367e-01
1.967211983270227005e-01 1.319138727521136367e-01
1.975080831203308018e-01 1.319138727521136367e-01
1.982949679136389032e-01 1.319138727521136367e-01
1.990818527069469768e-01 1.319138727521136367e-01
1.998687375002550781e-01 1.319138727521136367e-01
2.006556222935631517e-01 1.319138727521136367e-01
2.014425070868712531e-01 1.319138727521136367e-01
2.022293918801793544e-01 1.319138727521136367e-01
2.030162766734874280e-01 1.319138727521136367e-01
2.038031614667955294e-01 1.319138727521136367e-01
2.045900462601036029e-01 1.319138727521136367e-01
2.053769310534117043e-01 1.319138727521136367e-01
2.061638158467198056e-01 1.319138727521136367e-01
2.069507006400278792e-01 1.319138727521136367e-01
2.077375854333359806e-01 1.319138727521136367e-01
2.085244702266440819e-01 1.319138727521136367e-01
2.093113550199521555e-01 1.319138727521136367e-01
2.100982398132602569e-01 1.319138727521136367e-01
2.108851246065683305e-01 1.319138727521136367e-01
2.116720093998764318e-01 1.319138727521136367e-01
2.124588941931845332e-01 1.319138727521136367e-01
2.132457789864926068e-01 1.319138727521136367e-01
2.140326637798007081e-01 1.319138727521136367e-01
2.148195485731088095e-01 1.319138727521136367e-01
2.156064333664168831e-01 1.319138727521136367e-01
2.163933181597249844e-01 1.319138727521136367e-01
2.171802029530330580e-01 1.319138727521136367e-01
2.179670877463411593e-01 1.319138727521136367e-01
2.187539725396492607e-01 1.319138727521136367e-01
2.195408573329573343e-01 1.319138727521136367e-01
2.203277421262654356e-01 1.319138727521136367e-01
2.211146269195735370e-01 1.319138727521136367e-01
2.219015117128816106e-01 1.319138727521136367e-01
2.226883965061897119e-01 1.319138727521136367e-01
2.234752812994977855e-01 1.319138727521136367e-01
2.242621660928058869e-01 1.319138727521136367e-01
2.250490508861139882e-01 1.319138727521136367e-01
2.258359356794220618e-01 1.319138727521136367e-01
2.266228204727301632e-01 1.319138727521136367e-01
2.274097052660382368e-01 1.319138727521136367e-01
2.281965900593463381e-01 1.319138727521136367e-01
2.289834748526544395e-01 1.319138727521136367e-01
2.297703596459625131e-01 1.319138727521136367e-01
2.305572444392706144e-01 1.319138727521136367e-01
2.313441292325787157e-01 1.319138727521136367e-01
2.321310140258867893e-01 1.319138727521136367e-01
2.329178988191948907e-01 1.319138727521136367e-01
2.337047836125029643e-01 1.319138727521136367e-01
2.344916684058110656e-01 1.319138727521136367e-01
2.352785531991191670e-01 1.319138727521136367e-01
2.360654379924272406e-01 1.319138727521136367e-01
2.368523227857353419e-01 1.319138727521136367e-01
2.376392075790434433e-01 1.319138727521136367e-01
2.384260923723515169e-01 1.319138727521136367e-01
2.392129771656596182e-01 1.319138727521136367e-01
2.399998619589676918e-01 1.319138727521136367e-01
2.407867467522757932e-01 1.319138727521136367e-01
2.415736315455838945e-01 1.319138727521136367e-01
2.423605163388919681e-01 1.319138727521136367e-01
2.431474011322000695e-01 1.319138727521136367e-01
2.439342859255081708e-01 1.319138727521136367e-01
2.447211707188162444e-01 1.319138727521136367e-01
2.455080555121243457e-01 1.319138727521136367e-01
2.462949403054324193e-01 1.319138727521136367e-01
2.470818250987405207e-01 1.319138727521136367e-01
2.478687098920486220e-01 1.319138727521136367e-01
2.486555946853566956e-01 1.319138727521136367e-01
2.494424794786647970e-01 1.319138727521136367e-01
2.502293642719728983e-01 1.319138727521136367e-01
2.510162490652809719e-01 1.319138727521136367e-01
2.518031338585890455e-01 1.319138727521136367e-01
2.525900186518971746e-01 1.319138727521136367e-01
2.533769034452052482e-01 1.319138727521136367e-01
2.541637882385133218e-01 1.319138727521136367e-01
2.549506730318214509e-01 1.319138727521136367e-01
2.557375578251295245e-01 1.319138727521136367e-01
2.565244426184375981e-01 1.319138727521136367e-01
2.573113274117457272e-01 1.319138727521140808e-01
2.580982122050538008e-01 1.319138727521145249e-01
2.588850969983618744e-01 1.319138727521163013e-01
2.596719817916699480e-01 1.319138727521196319e-01
2.604588665849780771e-01 1.319138727521287358e-01
2.612457513782861507e-01 1.319138727521451671e-01
2.620326361715942243e-01 1.319138727521904642e-01
2.628195209649023534e-01 1.319138727522675136e-01
2.636064057582104270e-01 1.319138727524644672e-01
2.643932905515185006e-01 1.319138727527946475e-01
2.651801753448266297e-01 1.319138727535777988e-01
2.659670601381347033e-01 1.319138727548629930e-01
2.667539449314427769e-01 1.319138727577038317e-01
2.675408297247509060e-01 1.319138727622819474e-01
2.683277145180589796e-01 1.319138727717237281e-01
2.691145993113670531e-01 1.319138727867084082e-01
2.699014841046751823e-01 1.319138728156179496e-01
2.706883688979832558e-01 1.319138728609441369e-01
2.714752536912913294e-01 1.319138729431175161e-01
2.722621384845994030e-01 1.319138730707622997e-01
2.730490232779075321e-01 1.319138732897209287e-01
2.738359080712156057e-01 1.319138736275091706e-01
2.746227928645236793e-01 1.319138741808125737e-01
2.754096776578318084e-01 1.319138750297741414e-01
2.761965624511398820e-01 1.319138763718885610e-01
2.769834472444479556e-01 1.319138784203262027e-01
2.777703320377560847e-01 1.319138815782896490e-01
2.785572168310641583e-01 1.319138863676321272e-01
2.793441016243722319e-01 1.319138936262329587e-01
2.801309864176803610e-01 1.319139045455415271e-01
2.809178712109884346e-01 1.319139208914150707e-01
2.817047560042965082e-01 1.319139452424329395e-01
2.824916407976045818e-01 1.319139813097163216e-01
2.832785255909127109e-01 1.319140344674349929e-01
2.840654103842207845e-01 1.319141123758307277e-01
2.848522951775288581e-01 1.319142259418046859e-01
2.856391799708369872e-01 1.319143905918167547e-01
2.864260647641450608e-01 1.319146279807836830e-01
2.872129495574531344e-01 1.319149684059759409e-01
2.879998343507612635e-01 1.319154539279328020e-01
2.887867191440693371e-01 1.319161426516524127e-01
2.895736039373774107e-01 1.319171143850030870e-01
2.903604887306855398e-01 1.319184780023172632e-01
2.911473735239936134e-01 1.319203813348592824e-01
2.919342583173016870e-01 1.319230236407218371e-01
2.927211431106098161e-01 1.319266722584733209e-01
2.935080279039178897e-01 1.319316832366126402e-01
2.942949126972259632e-01 1.319385286482743780e-01
2.950817974905340368e-01 1.319478295706004722e-01
2.958686822838421659e-01 1.319603998474334627e-01
2.966555670771502395e-01 1.319772970329173845e-01
2.974424518704583131e-01 1.319998904052561706e-01
2.982293366637664422e-01 1.320299379747025270e-01
2.990162214570745158e-01 1.320696873448270470e-01
2.998031062503825894e-01 1.321219906725106252e-01
3.005899910436907185e-01 1.321904475937665246e-01
3.013768758369987921e-01 1.322795727417633849e-01
3.021637606303068657e-01 1.323949906012713562e-01
3.029506454236149948e-01 1.325436713601821914e-01
3.037375302169230684e-01 1.327341885939141708e-01
3.045244150102311420e-01 1.329770335662641134e-01
3.053112998035392156e-01 1.332849528535813288e-01
3.060981845968473447e-01 1.336733416991824352e-01
3.068850693901554183e-01 1.341606706407587613e-01
3.076719541834634919e-01 1.347689563272131963e-01
3.084588389767716210e-01 1.355242754373140457e-01
3.092457237700796946e-01 1.364572942277899603e-01
3.100326085633877682e-01 1.376038543957609495e-01
3.108194933566958973e-01 1.390055312271043508e-01
3.116063781500039709e-01 1.407102375052520227e-01
3.123932629433120445e-01 1.427727716696036708e-01
3.131801477366201736e-01 1.452553537281897622e-01
3.139670325299282472e-01 1.482280699717273276e-01
3.147539173232363208e-01 1.517692648375996711e-01
3.155408021165444499e-01 1.559657542437011823e-01
3.163276869098525235e-01 1.609128900397498452e-01
3.171145717031605971e-01 1.667144104802411597e-01
3.179014564964686707e-01 1.734820148457874023e-01
3.186883412897767998e-01 1.813346647908893328e-01
3.194752260830848734e-01 1.903974474227847491e-01
3.202621108763929469e-01 2.008001367481542232e-01
3.210489956697010761e-01 2.126750177968119715e-01
3.218358804630091496e-01 2.261546849648721214e-01
3.226227652563172232e-01 2.413686802342900339e-01
3.234096500496253523e-01 2.584400488947249386e-01
3.241965348429334259e-01 2.774809259176609366e-01
3.249834196362414995e-01 2.985878542130699920e-01
3.257703044295496286e-01 3.218361954115944723e-01
3.265571892228577022e-01 3.472743137781106881e-01
3.273440740161657758e-01 3.749171413926912777e-01
3.281309588094738494e-01 4.047393102187484271e-01
3.289178436027819785e-01 4.366693772654377526e-01
3.297047283960900521e-01 4.705811210824224489e-01
3.304916131893981257e-01 5.062894168758738100e-01
3.312784979827062548e-01 5.435427292195975646e-01
3.320653827760143284e-01 5.820189046733532656e-01
3.328522675693224020e-01 6.213226143547778690e-01
3.336391523626305311e-01 6.609817240414657125e-01
3.344260371559386047e-01 7.004472941709696254e-01
3.352129219492466783e-01 7.390999321621578577e-01
3.359998067425548074e-01 7.762481424616136660e-01
3.367866915358628810e-01 8.111425161445897647e-01
3.375735763291709546e-01 8.429841456783631060e-01
3.383604611224790837e-01 8.709373295649494029e-01
3.391473459157871573e-01 8.941515167239708628e-01
3.399342307090952309e-01 9.117736811446519596e-01
3.407211155024033045e-01 9.229808259717215968e-01
3.415080002957114336e-01 9.269931831342073103e-01
3.422948850890195072e-01 9.231052324730997238e-01
3.430817698823275808e-01 9.107167208690174487e-01
3.438686546756357099e-01 8.893455318802796494e-01
3.446555394689437835e-01 8.586633247406498803e-01
3.454424242622518570e-01 8.185067540438093481e-01
3.462293090555599862e-01 7.688975991772670771e-01
3.470161938488680597e-01 7.100463942202785983e-01
3.478030786421761333e-01 6.423857570065485412e-01
3.485899634354842624e-01 5.665406899594465084e-01
3.493768482287923360e-01 4.833381498228817019e-01
3.501637330221004096e-01 3.937859282552327311e-01
3.509506178154085387e-01 2.990594522005554090e-01
3.517375026087166123e-01 2.004694447980386318e-01
3.525243874020246859e-01 9.943222621721825583e-02
3.533112721953327595e-01 -2.562625432566245642e-03
3.540981569886408886e-01 -1.040004527472676576e-01
3.548850417819489622e-01 -2.033731981372354225e-01
3.556719265752570358e-01 -2.992269224908722380e-01
3.564588113685651649e-01 -3.902014040610143342e-01
3.572456961618732385e-01 -4.750611575925955954e-01
3.580325809551813121e-01 -5.527281034039119856e-01
3.588194657484894412e-01 -6.223152264400444444e-01
3.596063505417975148e-01 -6.831374659666133997e-01
3.603932353351055884e-01 -7.347235952356929722e-01
3.611801201284137175e-01 -7.768102816528541510e-01
3.619670049217217911e-01 -8.093572663502770492e-01
3.627538897150298647e-01 -8.325285547157199595e-01
3.635407745083379383e-01 -8.466554574318984061e-01
3.643276593016460674e-01 -8.522309806342471816e-01
3.651145440949541410e-01 -8.498870565512521846e-01
3.659014288882622146e-01 -8.403466948500740719e-01
3.666883136815703437e-01 -8.244006357931199513e-01
3.674751984748784173e-01 -8.028778573174575328e-01
3.682620832681864909e-01 -7.766097297928739041e-01
3.690489680614946200e-01 -7.464088025168886809e-01
3.698358528548026936e-01 -7.130433905622488577e-01
3.706227376481107672e-01 -6.772206292378541992e-01
3.714096224414188963e-01 -6.395695337057882845e-01
3.721965072347269698e-01 -6.006385485424186044e-01
3.729833920280350434e-01 -5.609025510180090102e-01
3.737702768213431725e-01 -5.207490327353269111e-01
3.745571616146512461e-01 -4.804969297250938354e-01
3.753440464079593197e-01 -4.403901876269484816e-01
3.761309312012673933e-01 -4.006203660537556166e-01
3.769178159945755224e-01 -3.613491604582350636e-01
3.777047007878835960e-01 -3.226956974902472908e-01
3.784915855811916696e-01 -2.847761338831749089e-01
3.792784703744997987e-01 -2.476869919225697103e-01
3.800653551678078723e-01 -2.115345286202189312e-01
3.808522399611159459e-01 -1.764314358069465349e-01
3.816391247544240750e-01 -1.424991500676522360e-01
3.824260095477321486e-01 -1.098818773469043553e-01
3.832128943410402222e-01 -7.873108338510748094e-02
3.839997791343483513e-01 -4.919460402474828964e-02
3.847866639276564249e-01 -2.144370444942167442e-02
3.855735487209644985e-01 4.370479591187637070e-03
3.863604335142725721e-01 2.810737205042945774e-02
3.871473183075807012e-01 4.964157645476618974e-02
3.879342031008887748e-01 6.888135538408324265e-02
3.887210878941968484e-01 8.576005071297387872e-02
3.895079726875049775e-01 1.002542331003295484e-01
3.902948574808130511e-01 1.123761122027846504e-01
3.910817422741211247e-01 1.221824464241503261e-01
3.918686270674292538e-01 1.297659631567011917e-01
3.926555118607373274e-01 1.352616286048495819e-01
3.934423966540454010e-01 1.388327881749145121e-01
3.942292814473535301e-01 1.406774362987976978e-01
3.950161662406616037e-01 1.410087469815131112e-01
3.958030510339696773e-01 1.400560637733465619e-01
3.965899358272778064e-01 1.380553300389810722e-01
3.973768206205858800e-01 1.352444690874181621e-01
3.981637054138939535e-01 1.318617342183794339e-01
3.989505902072020271e-01 1.281160095575211155e-01
3.997374750005101562e-01 1.242052895367449228e-01
4.005243597938182298e-01 1.203064491818828241e-01
4.013112445871263034e-01 1.165646844096626111e-01
4.020981293804344325e-01 1.130984618885055859e-01
4.028850141737425061e-01 1.100034789271637781e-01
4.036718989670505797e-01 1.073430937438462074e-01
4.044587837603587088e-01 1.051496454290963278e-01
4.052456685536667824e-01 1.034439233982642481e-01
4.060325533469748560e-01 1.022180078740735354e-01
4.068194381402829851e-01 1.014415397102994554e-01
4.076063229335910587e-01 1.010894396122345995e-01
4.083932077268991323e-01 1.011042891946272171e-01
4.091800925202072059e-01 1.014299900351052219e-01
4.099669773135153350e-01 1.020173735164133788e-01
4.107538621068234086e-01 1.028027514296230294e-01
4.115407469001314822e-01 1.037290353802025056e-01
4.123276316934396113e-01 1.047351770849824781e-01
4.131145164867476849e-01 1.057878474812592451e-01
4.139014012800557585e-01 1.068355680167385469e-01
4.146882860733638876e-01 1.078374198421605534e-01
4.154751708666719612e-01 1.087505041639467152e-01
4.162620556599800348e-01 1.095583214461051114e-01
4.170489404532881639e-01 1.102407422547260207e-01
4.178358252465962375e-01 1.107759872022999748e-01
4.186227100399043111e-01 1.111511866507535196e-01
4.194095948332124402e-01 1.113485211012152920e-01
4.201964796265205138e-01 1.113646906464873521e-01
4.209833644198285874e-01 1.111874856299353009e-01
4.217702492131366609e-01 1.108198759680381063e-01
4.225571340064447901e-01 1.102631816236747664e-01
4.233440187997528636e-01 1.095141026896471192e-01
4.241309035930609372e-01 1.085762690638731875e-01
4.249177883863690663e-01 1.074671702545044738e-01
4.257046731796771399e-01 1.062042957696922585e-01
4.264915579729852135e-01 1.048153648299026131e-01
4.272784427662933426e-01 1.033221568226447840e-01
4.280653275596014162e-01 1.017728503930148687e-01
4.288522123529094898e-01 1.002195840747468480e-01
4.296390971462176189e-01 9.871614635517422798e-02
4.304259819395256925e-01 9.734338496065642055e-02
4.312128667328337661e-01 9.618577751547174870e-02
4.319997515261418397e-01 9.532846162533803458e-02
4.327866363194499688e-01 9.487769430204195942e-02
4.335735211127580424e-01 9.494435242744891923e-02
4.343604059060661160e-01 9.564789264213913178e-02
4.351472906993742451e-01 9.710480167021495745e-02
4.359341754926823187e-01 9.944080597593396575e-02
4.367210602859903923e-01 1.027747022184368753e-01
4.375079450792985214e-01 1.072266070197440690e-01
4.382948298726065950e-01 1.128922176886080209e-01
4.390817146659146686e-01 1.198735013574581121e-01
4.398685994592227977e-01 1.282546056598523609e-01
4.406554842525308713e-01 1.380903090552836332e-01
4.414423690458389449e-01 1.494202104301320944e-01
4.422292538391470740e-01 1.622512395895145954e-01
4.430161386324551476e-01 1.765708568860773209e-01
4.438030234257632212e-01 1.923381434705602189e-01
4.445899082190712948e-01 2.094851212546775532e-01
4.453767930123794239e-01 2.279075131709609181e-01
4.461636778056874975e-01 2.474812427087518252e-01
4.469505625989955711e-01 2.680426344710120645e-01
4.477374473923037002e-01 2.894075536360729561e-01
4.485243321856117737e-01 3.113753658462738994e-01
4.493112169789198473e-01 3.337084777833334570e-01
4.500981017722279764e-01 3.561673161846505842e-01
4.508849865655360500e-01 3.785040580196283866e-01
4.516718713588441236e-01 4.004504208330401660e-01
4.524587561521522527e-01 4.217463719376550735e-01
4.532456409454603263e-01 4.421305586833634838e-01
4.540325257387683999e-01 4.613568079931671395e-01
4.548194105320764735e-01 4.791871965580647430e-01
4.556062953253846026e-01 4.954088803637619609e-01
4.563931801186926762e-01 5.098281548577150435e-01
4.571800649120007498e-01 5.222744148377687079e-01
4.579669497053088789e-01 5.326209438675060248e-01
4.587538344986169525e-01 5.407664347959375561e-01
4.595407192919250261e-01 5.466363097203799093e-01
4.603276040852331552e-01 5.502097792254836417e-01
4.611144888785412288e-01 5.514898132277274989e-01
4.619013736718493024e-01 5.505127107062932623e-01
4.626882584651574315e-01 5.473659192019373343e-01
4.634751432584655051e-01 5.421418361162138044e-01
4.642620280517735787e-01 5.349734477092167317e-01
4.650489128450817078e-01 5.260198095079071656e-01
4.658357976383897814e-01 5.154531766680392479e-01
4.666226824316978550e-01 5.034708836400747511e-01
4.674095672250059286e-01 4.902705948651959744e-01
4.681964520183140577e-01 4.760542646639420727e-01
4.689833368116221313e-01 4.610254973104519483e-01
4.697702216049302049e-01 4.453981267911792941e-01
4.705571063982383340e-01 4.293605778071505341e-01