0.000000000000000000e+00 -8.632218990421436366e-02
7.868847933080908323e-04 1.319138727521136367e-01
1.573769586616181665e-03 1.319138727521136367e-01
2.360654379924272388e-03 1.319138727521136367e-01
3.147539173232363329e-03 1.319138727521136367e-01
3.934423966540453836e-03 1.319138727521136367e-01
4.721308759848544777e-03 1.319138727521136367e-01
5.508193553156635718e-03 1.319138727521136367e-01
6.295078346464726658e-03 1.319138727521136367e-01
7.081963139772817599e-03 1.319138727521136367e-01
7.868847933080907672e-03 1.319138727521136367e-01
8.655732726388998613e-03 1.319138727521136367e-01
9.442617519697089554e-03 1.319138727521136367e-01
1.022950231300518049e-02 1.319138727521136367e-01
1.101638710631327144e-02 1.319138727521136367e-01
1.180327189962136238e-02 1.319138727521136367e-01
1.259015669292945332e-02 1.319138727521136367e-01
1.337704148623754426e-02 1.319138727521136367e-01
1.416392627954563520e-02 1.319138727521136367e-01
1.495081107285372614e-02 1.319138727521136367e-01
1.573769586616181534e-02 1.319138727521136367e-01
1.652458065946990629e-02 1.319138727521136367e-01
1.731146545277799723e-02 1.319138727521136367e-01
1.809835024608608817e-02 1.319138727521136367e-01
1.888523503939417911e-02 1.319138727521136367e-01
1.967211983270227005e-02 1.319138727521136367e-01
2.045900462601036099e-02 1.319138727521136367e-01
2.124588941931845193e-02 1.319138727521136367e-01
2.203277421262654287e-02 1.319138727521136367e-01
2.281965900593463381e-02 1.319138727521136367e-01
2.360654379924272475e-02 1.319138727521136367e-01
2.439342859255081569e-02 1.319138727521136367e-01
2.518031338585890663e-02 1.319138727521136367e-01
2.596719817916699757e-02 1.319138727521136367e-01
2.675408297247508851e-02 1.319138727521136367e-01
2.754096776578317946e-02 1.319138727521136367e-01
2.832785255909127040e-02 1.319138727521136367e-01
2.911473735239936134e-02 1.319138727521136367e-01
2.990162214570745228e-02 1.319138727521136367e-01
3.068850693901554322e-02 1.319138727521136367e-01
3.147539173232363069e-02 1.319138727521136367e-01
3.226227652563172510e-02 1.319138727521136367e-01
3.304916131893981257e-02 1.319138727521136367e-01
3.383604611224790698e-02 1.319138727521136367e-01
3.462293090555599445e-02 1.319138727521136367e-01
3.540981569886408886e-02 1.319138727521136367e-01
3.619670049217217633e-02 1.319138727521136367e-01
3.698358528548027074e-02 1.319138727521136367e-01
3.777047007878835821e-02 1.319138727521136367e-01
3.855735487209645262e-02 1.319138727521136367e-01
3.934423966540454010e-02 1.319138727521136367e-01
4.013112445871263451e-02 1.319138727521136367e-01
4.091800925202072198e-02 1.319138727521136367e-01
4.170489404532881639e-02 1.319138727521136367e-01
4.249177883863690386e-02 1.319138727521136367e-01
4.327866363194499827e-02 1.319138727521136367e-01
4.406554842525308574e-02 1.319138727521136367e-01
4.485243321856118015e-02 1.319138727521136367e-01
4.563931801186926762e-02 1.319138727521136367e-01
4.642620280517736203e-02 1.319138727521136367e-01
4.721308759848544950e-02 1.319138727521136367e-01
4.799997239179354391e-02 1.319138727521136367e-01
4.878685718510163138e-02 1.319138727521136367e-01
4.957374197840972579e-02 1.319138727521136367e-01
5.036062677171781327e-02 1.319138727521136367e-01
5.114751156502590074e-02 1.319138727521136367e-01
5.193439635833399515e-02 1.319138727521136367e-01
5.272128115164208262e-02 1.319138727521136367e-01
5.350816594495017703e-02 1.319138727521136367e-01
5.429505073825826450e-02 1.319138727521136367e-01
5.508193553156635891e-02 1.319138727521136367e-01
5.586882032487444638e-02 1.319138727521136367e-01
5.665570511818254079e-02 1.319138727521136367e-01
5.744258991149062826e-02 1.319138727521136367e-01
5.822947470479872267e-02 1.319138727521136367e-01
5.901635949810681014e-02 1.319138727521136367e-01
5.980324429141490455e-02 1.319138727521136367e-01
6.059012908472299203e-02 1.319138727521136367e-01
6.137701387803108644e-02 1.319138727521136367e-01
6.216389867133917391e-02 1.319138727521136367e-01
6.295078346464726138e-02 1.319138727521136367e-01
6.373766825795536273e-02 1.319138727521136367e-01
6.452455305126345020e-02 1.319138727521136367e-01
6.531143784457153767e-02 1.319138727521136367e-01
6.609832263787962514e-02 1.319138727521136367e-01
6.688520743118772649e-02 1.319138727521136367e-01
6.767209222449581396e-02 1.319138727521136367e-01
6.845897701780390143e-02 1.319138727521136367e-01
6.924586181111198890e-02 1.319138727521136367e-01
7.003274660442009025e-02 1.319138727521136367e-01
7.081963139772817772e-02 1.319138727521136367e-01
7.160651619103626520e-02 1.319138727521136367e-01
7.239340098434435267e-02 1.319138727521136367e-01
7.318028577765245402e-02 1.319138727521136367e-01
7.396717057096054149e-02 1.319138727521136367e-01
7.475405536426862896e-02 1.319138727521136367e-01
7.554094015757671643e-02 1.319138727521136367e-01
7.632782495088480390e-02 1.319138727521136367e-01
7.711470974419290525e-02 1.319138727521136367e-01
7.790159453750099272e-02 1.319138727521136367e-01
7.868847933080908019e-02 1.319138727521136367e-01
7.947536412411716766e-02 1.319138727521136367e-01
8.026224891742526901e-02 1.319138727521136367e-01
8.104913371073335648e-02 1.319138727521136367e-01
8.183601850404144396e-02 1.319138727521136367e-01
8.262290329734953143e-02 1.319138727521136367e-01
8.340978809065763278e-02 1.319138727521136367e-01
8.419667288396572025e-02 1.319138727521136367e-01
8.498355767727380772e-02 1.319138727521136367e-01
8.577044247058189519e-02 1.319138727521136367e-01
8.655732726388999654e-02 1.319138727521136367e-01
8.734421205719808401e-02 1.319138727521136367e-01
8.813109685050617148e-02 1.319138727521136367e-01
8.891798164381425895e-02 1.319138727521136367e-01
8.970486643712236030e-02 1.319138727521136367e-01
9.049175123043044777e-02 1.319138727521136367e-01
9.127863602373853524e-02 1.319138727521136367e-01
9.206552081704662271e-02 1.319138727521136367e-01
9.285240561035472406e-02 1.319138727521136367e-01
9.363929040366281153e-02 1.319138727521136367e-01
9.442617519697089901e-02 1.319138727521136367e-01
9.521305999027898648e-02 1.319138727521136367e-01
9.599994478358708783e-02 1.319138727521136367e-01
9.678682957689517530e-02 1.319138727521136367e-01
9.757371437020326277e-02 1.319138727521136367e-01
9.836059916351135024e-02 1.319138727521136367e-01
9.914748395681945159e-02 1.319138727521136367e-01
9.993436875012753906e-02 1.319138727521136367e-01
1.007212535434356265e-01 1.319138727521136367e-01
1.015081383367437140e-01 1.319138727521136367e-01
1.022950231300518015e-01 1.319138727521136367e-01
1.030819079233599028e-01 1.319138727521136367e-01
1.038687927166679903e-01 1.319138727521136367e-01
1.046556775099760778e-01 1.319138727521136367e-01
1.054425623032841652e-01 1.319138727521136367e-01
1.062294470965922666e-01 1.319138727521136367e-01
1.070163318899003541e-01 1.319138727521136367e-01
1.078032166832084415e-01 1.319138727521136367e-01
1.085901014765165290e-01 1.319138727521136367e-01
1.093769862698246303e-01 1.319138727521136367e-01
1.101638710631327178e-01 1.319138727521136367e-01
1.109507558564408053e-01 1.319138727521136367e-01
1.117376406497488928e-01 1.319138727521136367e-01
1.125245254430569941e-01 1.319138727521136367e-01
1.133114102363650816e-01 1.319138727521136367e-01
1.140982950296731691e-01 1.319138727521136367e-01
1.148851798229812565e-01 1.319138727521136367e-01
1.156720646162893579e-01 1.319138727521136367e-01
1.164589494095974453e-01 1.319138727521136367e-01
1.172458342029055328e-01 1.319138727521136367e-01
1.180327189962136203e-01 1.319138727521136367e-01
1.188196037895217216e-01 1.319138727521136367e-01
1.196064885828298091e-01 1.319138727521136367e-01
1.203933733761378966e-01 1.319138727521136367e-01
1.211802581694459841e-01 1.319138727521136367e-01
1.219671429627540854e-01 1.319138727521136367e-01
1.227540277560621729e-01 1.319138727521136367e-01
1.235409125493702603e-01 1.319138727521136367e-01
1.243277973426783478e-01 1.319138727521136367e-01
1.251146821359864492e-01 1.319138727521136367e-01
1.259015669292945228e-01 1.319138727521136367e-01
1.266884517226026241e-01 1.319138727521136367e-01
1.274753365159107255e-01 1.319138727521136367e-01
1.282622213092187990e-01 1.319138727521136367e-01
1.290491061025269004e-01 1.319138727521136367e-01
1.298359908958349740e-01 1.319138727521136367e-01
1.306228756891430753e-01 1.319138727521136367e-01
1.314097604824511767e-01 1.319138727521136367e-01
1.321966452757592503e-01 1.319138727521136367e-01
1.329835300690673516e-01 1.319138727521136367e-01
1.337704148623754530e-01 1.319138727521136367e-01
1.345572996556835266e-01 1.319138727521136367e-01
1.353441844489916279e-01 1.319138727521136367e-01
1.361310692422997015e-01 1.319138727521136367e-01
1.369179540356078029e-01 1.319138727521136367e-01
1.377048388289159042e-01 1.319138727521136367e-01
1.384917236222239778e-01 1.319138727521136367e-01
1.392786084155320792e-01 1.319138727521136367e-01
1.400654932088401805e-01 1.319138727521136367e-01
1.408523780021482541e-01 1.319138727521136367e-01
1.416392627954563554e-01 1.319138727521136367e-01
1.424261475887644290e-01 1.319138727521136367e-01
1.432130323820725304e-01 1.319138727521136367e-01
1.439999171753806317e-01 1.319138727521136367e-01
1.447868019686887053e-01 1.319138727521136367e-01
1.455736867619968067e-01 1.319138727521136367e-01
1.463605715553049080e-01 1.319138727521136367e-01
1.471474563486129816e-01 1.319138727521136367e-01
1.479343411419210830e-01 1.319138727521136367e-01
1.487212259352291566e-01 1.319138727521136367e-01
1.495081107285372579e-01 1.319138727521136367e-01
1.502949955218453593e-01 1.319138727521136367e-01
1.510818803151534329e-01 1.319138727521136367e-01
1.518687651084615342e-01 1.319138727521136367e-01
1.526556499017696078e-01 1.319138727521136367e-01
1.534425346950777092e-01 1.319138727521136367e-01
1.542294194883858105e-01 1.319138727521136367e-01
1.550163042816938841e-01 1.319138727521136367e-01
1.558031890750019854e-01 1.319138727521136367e-01
1.565900738683100868e-01 1.319138727521136367e-01
1.573769586616181604e-01 1.319138727521136367e-01
1.581638434549262617e-01 1.319138727521136367e-01
1.589507282482343353e-01 1.319138727521136367e-01
1.597376130415424367e-01 1.319138727521136367e-01
1.605244978348505380e-01 1.319138727521136367e-01
1.613113826281586116e-01 1.319138727521136367e-01
1.620982674214667130e-01 1.319138727521136367e-01
1.628851522147748143e-01 1.319138727521136367e-01
1.636720370080828879e-01 1.319138727521136367e-01
1.644589218013909893e-01 1.319138727521136367e-01
1.652458065946990629e-01 1.319138727521136367e-01
1.660326913880071642e-01 1.319138727521136367e-01
1.668195761813152656e-01 1.319138727521136367e-01
1.676064609746233391e-01 1.319138727521136367e-01
1.683933457679314405e-01 1.319138727521136367e-01
1.691802305612395418e-01 1.319138727521136367e-01
1.699671153545476154e-01 1.319138727521136367e-01
1.707540001478557168e-01 1.319138727521136367e-01
1.715408849411637904e-01 1.319138727521136367e-01
1.723277697344718917e-01 1.319138727521136367e-01
1.731146545277799931e-01 1.319138727521136367e-01
1.739015393210880667e-01 1.319138727521136367e-01
1.746884241143961680e-01 1.319138727521136367e-01
1.754753089077042694e-01 1.319138727521136367e-01
1.762621937010123430e-01 1.319138727521136367e-01
1.770490784943204443e-01 1.319138727521136367e-01
1.778359632876285179e-01 1.319138727521136367e-01
1.786228480809366193e-01 1.319138727521136367e-01
1.794097328742447206e-01 1.319138727521136367e-01
1.801966176675527942e-01 1.319138727521136367e-01
1.809835024608608955e-01 1.319138727521136367e-01
1.817703872541689691e-01 1.319138727521136367e-01
1.825572720474770705e-01 1.319138727521136367e-01
1.833441568407851718e-01 1.319138727521136367e-01
1.841310416340932454e-01 1.319138727521136367e-01
1.849179264274013468e-01 1.319138727521136367e-01
1.857048112207094481e-01 1.319138727521136367e-01
1.864916960140175217e-01 1.319138727521136367e-01
1.872785808073256231e-01 1.319138727521136367e-01
1.880654656006336967e-01 1.319138727521136367e-01
1.888523503939417980e-01 1.319138727521136367e-01
1.896392351872498994e-01 1.319138727521136367e-01
1.904261199805579730e-01 1.319138727521136367e-01
1.912130047738660743e-01 1.319138727521136367e-01
1.919998895671741757e-01 1.319138727521136367e-01
1.927867743604822492e-01 1.319138727521136367e-01
1.935736591537903506e-01 1.319138727521136367e-01
1.943605439470984242e-01 1.319138727521136367e-01
1.951474287404065255e-01 1.319138727521136367e-01
1.959343135337146269e-01 1.319138727521136367e-01
1.967211983270227005e-01 1.319138727521136367e-01
1.975080831203308018e-01 1.319138727521136367e-01
1.982949679136389032e-01 1.319138727521136367e-01
1.990818527069469768e-01 1.319138727521136367e-01
1.998687375002550781e-01 1.319138727521136367e-01
2.006556222935631517e-01 1.319138727521136367e-01
2.014425070868712531e-01 1.319138727521136367e-01
2.022293918801793544e-01 1.319138727521136367e-01
2.030162766734874280e-01 1.319138727521136367e-01
2.038031614667955294e-01 1.319138727521136367e-01
2.045900462601036029e-01 1.319138727521136367e-01
2.053769310534117043e-01 1.319138727521136367e-01
2.061638158467198056e-01 1.319138727521136367e-01
2.069507006400278792e-01 1.319138727521136367e-01
2.077375854333359806e-01 1.319138727521136367e-01
2.085244702266440819e-01 1.319138727521136367e-01
2.093113550199521555e-01 1.319138727521136367e-01
2.100982398132602569e-01 1.319138727521136367e-01
2.108851246065683305e-01 1.319138727521136367e-01
2.116720093998764318e-01 1.319138727521136367e-01
2.124588941931845332e-01 1.319138727521136367e-01
2.132457789864926068e-01 1.319138727521136367e-01
2.140326637798007081e-01 1.319138727521136367e-01
2.148195485731088095e-01 1.319138727521136367e-01
2.156064333664168831e-01 1.319138727521136367e-01
2.163933181597249844e-01 1.319138727521136367e-01
2.171802029530330580e-01 1.319138727521136367e-01
2.179670877463411593e-01 1.319138727521136367e-01
2.187539725396492607e-01 1.319138727521136367e-01
2.195408573329573343e-01 1.319138727521136367e-01
2.203277421262654356e-01 1.319138727521136367e-01
2.211146269195735370e-01 1.319138727521136367e-01
2.219015117128816106e-01 1.319138727521136367e-01
2.226883965061897119e-01 1.319138727521136367e-01
2.234752812994977855e-01 1.319138727521136367e-01
2.242621660928058869e-01 1.319138727521136367e-01
2.250490508861139882e-01 1.319138727521136367e-01
2.258359356794220618e-01 1.319138727521136367e-01
2.266228204727301632e-01 1.319138727521136367e-01
2.274097052660382368e-01 1.319138727521136367e-01
2.281965900593463381e-01 1.319138727521136367e-01
2.289834748526544395e-01 1.319138727521136367e-01
2.297703596459625131e-01 1.319138727521136367e-01
2.305572444392706144e-01 1.319138727521136367e-01
2.313441292325787157e-01 1.319138727521136367e-01
2.321310140258867893e-01 1.319138727521136367e-01
2.329178988191948907e-01 1.319138727521136367e-01
2.337047836125029643e-01 1.319138727521136367e-01
2.344916684058110656e-01 1.319138727521136367e-01
2.352785531991191670e-01 1.319138727521136367e-01
2.360654379924272406e-01 1.319138727521136367e-01
2.368523227857353419e-01 1.319138727521136367e-01
2.376392075790434433e-01 1.319138727521136367e-01
2.384260923723515169e-01 1.319138727521136367e-01
2.392129771656596182e-01 1.319138727521136367e-01
2.399998619589676918e-01 1.319138727521136367e-01
2.407867467522757932e-01 1.319138727521136367e-01
2.415736315455838945e-01 1.319138727521136367e-01
2.423605163388919681e-01 1.319138727521136367e-01
2.431474011322000695e-01 1.319138727521136367e-01
2.439342859255081708e-01 1.319138727521136367e-01
2.447211707188162444e-01 1.319138727521136367e-01
2.455080555121243457e-01 1.319138727521136367e-01
2.462949403054324193e-01 1.319138727521136367e-01
2.470818250987405207e-01 1.319138727521136367e-01
2.478687098920486220e-01 1.319138727521136367e-01
2.486555946853566956e-01 1.319138727521136367e-01
2.494424794786647970e-01 1.319138727521136367e-01
2.502293642719728983e-01 1.319138727521136367e-01
2.510162490652809719e-01 1.319138727521136367e-01
2.518031338585890455e-01 1.319138727521136367e-01
2.525900186518971746e-01 1.319138727521136367e-01
2.533769034452052482e-01 1.319138727521136367e-01
2.541637882385133218e-01 1.319138727521136367e-01
2.549506730318214509e-01 1.319138727521136367e-01
2.557375578251295245e-01 1.319138727521136367e-01
2.565244426184375981e-01 1.319138727521140808e-01
2.573113274117457272e-01 1.319138727521149690e-01
2.580982122050538008e-01 1.319138727521174115e-01
2.588850969983618744e-01 1.319138727521216303e-01
2.596719817916699480e-01 1.319138727521342869e-01
2.604588665849780771e-01 1.319138727521560472e-01
2.612457513782861507e-01 1.319138727522153332e-01
2.620326361715942243e-01 1.319138727523156973e-01
2.628195209649023534e-01 1.319138727525706045e-01
2.636064057582104270e-01 1.319138727529911570e-01
2.643932905515185006e-01 1.319138727539874711e-01
2.651801753448266297e-01 1.319138727556006252e-01
2.659670601381347033e-01 1.319138727591580018e-01
2.667539449314427769e-01 1.319138727648261344e-01
2.675408297247509060e-01 1.319138727764843644e-01
2.683277145180589796e-01 1.319138727948114820e-01
2.691145993113670531e-01 1.319138728300630614e-01
2.699014841046751823e-01 1.319138728849063025e-01
2.706883688979832558e-01 1.319138729840025892e-01
2.714752536912913294e-01 1.319138731370017581e-01
2.722621384845994030e-01 1.319138733985063539e-01
2.730490232779075321e-01 1.319138738000658062e-01
2.738359080712156057e-01 1.319138744553554066e-01
2.746227928645236793e-01 1.319138754572823924e-01
2.754096776578318084e-01 1.319138770352938916e-01
2.761965624511398820e-01 1.319138794371279566e-01
2.769834472444479556e-01 1.319138831267347989e-01
2.777703320377560847e-01 1.319138887089936762e-01
2.785572168310641583e-01 1.319138971416715655e-01
2.793441016243722319e-01 1.319139097981116837e-01
2.801309864176803610e-01 1.319139286881665374e-01
2.809178712109884346e-01 1.319139567635132515e-01
2.817047560042965082e-01 1.319139982331867245e-01
2.824916407976045818e-01 1.319140592037733040e-01
2.832785255909127109e-01 1.319141483288372996e-01
2.840654103842207845e-01 1.319142779126578624e-01
2.848522951775288581e-01 1.319144652942474405e-01
2.856391799708369872e-01 1.319147347362163991e-01
2.864260647641450608e-01 1.319151200837451743e-01
2.872129495574531344e-01 1.319156681448356849e-01
2.879998343507612635e-01 1.319164433848436513e-01
2.887867191440693371e-01 1.319175339971927485e-01
2.895736039373774107e-01 1.319190598890962463e-01
2.903604887306855398e-01 1.319211831856592632e-01
2.911473735239936134e-01 1.319241216361761726e-01
2.919342583173016870e-01 1.319281660082745056e-01
2.927211431106098161e-01 1.319337021500581741e-01
2.935080279039178897e-01 1.319412389266687580e-01
2.942949126972259632e-01 1.319514433179260759e-01
2.950817974905340368e-01 1.319651841438866935e-01
2.958686822838421659e-01 1.319835860560358842e-01
2.966555670771502395e-01 1.320080958126221837e-01
2.974424518704583131e-01 1.320405627433514084e-01
2.982293366637664422e-01 1.320833360582811533e-01
2.990162214570745158e-01 1.321393805631021490e-01
2.998031062503825894e-01 1.322124149374155344e-01
3.005899910436907185e-01 1.323070724652286589e-01
3.013768758369987921e-01 1.324290903808256203e-01
3.021637606303068657e-01 1.325855244312161840e-01
3.029506454236149948e-01 1.327849996723038384e-01
3.037375302169230684e-01 1.330379846890803464e-01
3.045244150102311420e-01 1.333571085148135271e-01
3.053112998035392156e-01 1.337574998060788722e-01
3.060981845968473447e-01 1.342571650511179548e-01
3.068850693901554183e-01 1.348773888930527853e-01
3.076719541834634919e-01 1.356431629728056532e-01
3.084588389767716210e-01 1.365836236340756127e-01
3.092457237700796946e-01 1.377325172618144578e-01
3.100326085633877682e-01 1.391286377455100975e-01
3.108194933566958973e-01 1.408162702264716959e-01
3.116063781500039709e-01 1.428456093868499810e-01
3.123932629433120445e-01 1.452731023306172986e-01
3.131801477366201736e-01 1.481617611724339589e-01
3.139670325299282472e-01 1.515813686373355118e-01
3.147539173232363208e-01 1.556085392894788200e-01
3.155408021165444499e-01 1.603267466016937703e-01
3.163276869098525235e-01 1.658259981208678457e-01
3.171145717031605971e-01 1.722025016101484951e-01
3.179014564964686707e-01 1.795579689747675012e-01
3.186883412897767998e-01 1.879987551925070832e-01
3.194752260830848734e-01 1.976345357727677943e-01
3.202621108763929469e-01 2.085769352326389825e-01
3.210489956697010761e-01 2.209374491865851997e-01
3.218358804630091496e-01 2.348252530018224427e-01
3.226227652563172232e-01 2.503445515603488492e-01
3.234096500496253523e-01 2.675914340348963805e-01
3.241965348429334259e-01 2.866501099322833479e-01
3.249834196362414995e-01 3.075893616931757446e-01
3.257703044295496286e-01 3.304578629487491259e-01
3.265571892228577022e-01 3.552796411482919137e-01
3.273440740161657758e-01 3.820485295902265044e-01
3.281309588094738494e-01 4.107234856787740362e-01
3.289178436027819785e-01 4.412234966922141677e-01
3.297047283960900521e-01 4.734201962405313324e-01
3.304916131893981257e-01 5.071365030536929552e-01
3.312784979827062548e-01 5.421374637391760398e-01
3.320653827760143284e-01 5.781286440772068769e-01
3.328522675693224020e-01 6.147532416019629853e-01
3.336391523626305311e-01 6.515887031966942633e-01
3.344260371559386047e-01 6.881475500705231951e-01
3.352129219492466783e-01 7.238761402932445410e-01
3.359998067425548074e-01 7.581613511074034584e-01
3.367866915358628810e-01 7.903326413702931319e-01
3.375735763291709546e-01 8.196727762523499106e-01
3.383604611224790837e-01 8.454273969680288214e-01
3.391473459157871573e-01 8.668150854927583193e-01
3.399342307090952309e-01 8.830512888901282942e-01
3.407211155024033045e-01 8.933532691726877584e-01
3.415080002957114336e-01 8.969732673692885072e-01
3.422948850890195072e-01 8.932153330517962342e-01
3.430817698823275808e-01 8.814514938803632571e-01
3.438686546756357099e-01 8.611616844805281001e-01
3.446555394689437835e-01 8.319350664060949363e-01
3.454424242622518570e-01 7.935056671368758696e-01
3.462293090555599862e-01 7.457626097910061702e-01
3.470161938488680597e-01 6.887718925124528546e-01
3.478030786421761333e-01 6.227968478956451559e-01
3.485899634354842624e-01 5.482849433566805430e-01
3.493768482287923360e-01 4.658882405579549690e-01
3.501637330221004096e-01 3.764528357051277752e-01
3.509506178154085387e-01 2.810017000296909373e-01
3.517375026087166123e-01 1.807359997518469541e-01
3.525243874020246859e-01 7.700143702708728277e-02
3.533112721953327595e-01 -2.874078923715472911e-02
3.540981569886408886e-01 -1.349324628618131516e-01
3.548850417819489622e-01 -2.399777487257614972e-01
3.556719265752570358e-01 -3.422497925802081564e-01
3.564588113685651649e-01 -4.401511093504273386e-01
3.572456961618732385e-01 -5.321667116416518573e-01
3.580325809551813121e-01 -6.168657596926729880e-01
3.588194657484894412e-01 -6.929675595198074856e-01
3.596063505417975148e-01 -7.593725820445614838e-01
3.603932353351055884e-01 -8.151786326389036663e-01
3.611801201284137175e-01 -8.597065904014113968e-01
3.619670049217217911e-01 -8.925215275633411327e-01
3.627538897150298647e-01 -9.134356794051059492e-01
3.635407745083379383e-01 -9.225145490845934049e-01
3.643276593016460674e-01 -9.200675029016496254e-01
3.651145440949541410e-01 -9.066363856182454439e-01
3.659014288882622146e-01 -8.829771234758450049e-01
3.666883136815703437e-01 -8.500303550213409443e-01
3.674751984748784173e-01 -8.088954288695515693e-01
3.682620832681864909e-01 -7.607934395864952570e-01
3.690489680614946200e-01 -7.070290003269383838e-01
3.698358528548026936e-01 -6.489569550205324111e-01
3.706227376481107672e-01 -5.879462804807271681e-01
3.714096224414188963e-01 -5.253351612619274746e-01
3.721965072347269698e-01 -4.624131907850421719e-01
3.729833920280350434e-01 -4.003806277957948634e-01
3.737702768213431725e-01 -3.403181919016482482e-01
3.745571616146512461e-01 -2.831748539151707211e-01
3.753440464079593197e-01 -2.297417665871691606e-01
3.761309312012673933e-01 -1.806558120069268192e-01
3.769178159945755224e-01 -1.363893718898889773e-01
3.777047007878835960e-01 -9.723795292566883575e-02
3.784915855811916696e-01 -6.334196616555654025e-02
3.792784703744997987e-01 -3.470240158171156164e-02
3.800653551678078723e-01 -1.117439324812585788e-02
3.808522399611159459e-01 7.511991244026239301e-03
3.816391247544240750e-01 2.170060222481384749e-02
3.824260095477321486e-01 3.183791713817529789e-02
3.832128943410402222e-01 3.841100228658822502e-02
3.839997791343483513e-01 4.194223297955312901e-02
3.847866639276564249e-01 4.296949409040240475e-02
3.855735487209644985e-01 4.203199045534833367e-02
3.863604335142725721e-01 3.964978744885239159e-02
3.871473183075807012e-01 3.629444180956031829e-02
3.879342031008887748e-01 3.241210099068991823e-02
3.887210878941968484e-01 2.838060436645362117e-02
3.895079726875049775e-01 2.453456252676544658e-02
3.902948574808130511e-01 2.113895801965304244e-02
3.910817422741211247e-01 1.840597487797146492e-02
3.918686270674292538e-01 1.647981904628892380e-02
3.926555118607373274e-01 1.545816777767661243e-02
3.934423966540454010e-01 1.538655979147218744e-02
3.942292814473535301e-01 1.626301514335670717e-02
3.950161662406616037e-01 1.805354478918674843e-02
3.958030510339696773e-01 2.069908039011170153e-02
3.965899358272778064e-01 2.411250439609502472e-02
3.973768206205858800e-01 2.819283964686714050e-02
3.981637054138939535e-01 3.282557936264440812e-02
3.989505902072020271e-01 3.789489680076463252e-02
3.997374750005101562e-01 4.328232529280695573e-02
4.005243597938182298e-01 4.886642825387133016e-02
4.013112445871263034e-01 5.454061868145121394e-02
4.020981293804344325e-01 6.019929954519853688e-02
4.028850141737425061e-01 6.574050371268436166e-02
4.036718989670505797e-01 7.107612366171234264e-02
4.044587837603587088e-01 7.613983125759538062e-02
4.052456685536667824e-01 8.085737858837060976e-02
4.060325533469748560e-01 8.518025701822207196e-02
4.068194381402829851e-01 8.906391779997169245e-02
4.076063229335910587e-01 9.246381218644184052e-02
4.083932077268991323e-01 9.536872049315792133e-02
4.091800925202072059e-01 9.775356342541252630e-02
4.099669773135153350e-01 9.961306113168832965e-02
4.107538621068234086e-01 1.009491935563042730e-01
4.115407469001314822e-01 1.017778002538123339e-01
4.123276316934396113e-01 1.021216505838815625e-01
4.131145164867476849e-01 1.020078037855380870e-01
4.139014012800557585e-01 1.014765187266020163e-01
4.146882860733638876e-01 1.005730041356911464e-01
4.154751708666719612e-01 9.934972853725931863e-02
4.162620556599800348e-01 9.787071013095438587e-02
4.170489404532881639e-01 9.619270732058837758e-02
4.178358252465962375e-01 9.438699810164585813e-02
4.186227100399043111e-01 9.253311023760724119e-02
4.194095948332124402e-01 9.070331169611689504e-02
4.201964796265205138e-01 8.897812021281437111e-02
4.209833644198285874e-01 8.743112371822325812e-02
4.217702492131366609e-01 8.613558015214706209e-02
4.225571340064447901e-01 8.515913761215254674e-02
4.233440187997528636e-01 8.457604401020235585e-02
4.241309035930609372e-01 8.444305775010851889e-02
4.249177883863690663e-01 8.481330733776437647e-02
4.257046731796771399e-01 8.573761134402491102e-02
4.264915579729852135e-01 8.724797886871415997e-02
4.272784427662933426e-01 8.937377908589771991e-02
4.280653275596014162e-01 9.213778135524375301e-02
4.288522123529094898e-01 9.554526552827025121e-02
4.296390971462176189e-01 9.959887153073543331e-02
4.304259819395256925e-01 1.042893596224840902e-01
4.312128667328337661e-01 1.096005602582441618e-01
4.319997515261418397e-01 1.155123440041057048e-01
4.327866363194499688e-01 1.219923717695248211e-01
4.335735211127580424e-01 1.289960948073238800e-01
4.343604059060661160e-01 1.364855641847211309e-01
4.351472906993742451e-01 1.444155711730996661e-01
4.359341754926823187e-01 1.527409070438416894e-01
4.367210602859903923e-01 1.614110832168123011e-01
4.375079450792985214e-01 1.703749511304368802e-01
4.382948298726065950e-01 1.795856521024987718e-01
4.390817146659146686e-01 1.890002873394192040e-01
4.398685994592227977e-01 1.985736481125810471e-01
4.406554842525308713e-01 2.082823050808753074e-01
4.414423690458389449e-01 2.180876493300816232e-01
4.422292538391470740e-01 2.279642715747727255e-01
4.430161386324551476e-01 2.379019421026331571e-01
4.438030234257632212e-01 2.478854813405511059e-01
4.445899082190712948e-01 2.579208291214829529e-01
4.453767930123794239e-01 2.680106253711880271e-01
4.461636778056874975e-01 2.781634498483815943e-01
4.469505625989955711e-01 2.883964620704955184e-01
4.477374473923037002e-01 2.987321014064781011e-01
4.485243321856117737e-01 3.091934672067184753e-01
4.493112169789198473e-01 3.197996989329667805e-01
4.500981017722279764e-01 3.305659761583354950e-01
4.508849865655360500e-01 3.415094584002560385e-01
4.516718713588441236e-01 3.526390554081642037e-01
4.524587561521522527e-01 3.639603770242971770e-01
4.532456409454603263e-01 3.754457040281884428e-01
4.540325257387683999e-01 3.870659972364927093e-01
4.548194105320764735e-01 3.987803377999501464e-01
4.556062953253846026e-01 4.105204176395549354e-01
4.563931801186926762e-01 4.222067089918264404e-01
4.571800649120007498e-01 4.337398846500939431e-01
4.579669497053088789e-01 4.450011479552167248e-01
4.587538344986169525e-01 4.558601525728591675e-01
4.595407192919250261e-01 4.661697226419749818e-01
4.603276040852331552e-01 4.757632128490465462e-01
4.611144888785412288e-01 4.844815676671132554e-01
4.619013736718493024e-01 4.921485720517824181e-01
4.626882584651574315e-01 4.985995606338560204e-01
4.634751432584655051e-01 5.036781178121318980e-01
4.642620280517735787e-01 5.072430075585199205e-01
4.650489128450817078e-01 5.091523338634909024e-01
4.658357976383897814e-01 5.093080894832535677e-01
4.666226824316978550e-01 5.076330565893660829e-01
4.674095672250059286e-01 5.040797165181722939e-01
4.681964520183140577e-01 4.986381695480768261e-01
4.689833368116221313e-01 4.913318450201884513e-01
4.697702216049302049e-01 4.822214612269566381e-01
4.705571063982383340e-01 4.713967756441770351e-01